<?xml version="1.0" ?>
<VTKFile byte_order="LittleEndian" type="UnstructuredGrid" version="0.1">
<UnstructuredGrid>
<Piece NumberOfCells="359" NumberOfPoints="1617">
<Points>
<DataArray NumberOfComponents="3" format="ascii" type="Float32">10.0 0.0 0.0 9.99555576818289 0.29813529464588173 0.0 9.98222307273156 0.5960054749963711 0.0 9.959398479515972 0.9002241894939869 0.0 9.927302519591658 1.2036048705904863 0.0 9.884979224918881 1.5123522451019578 0.0 9.833053684165742 1.8196305241214477 0.0 9.770271917519848 2.1311527788664315 0.0 9.697620891563346 2.4405222890836566 0.0 9.613618168290888 2.7528845045597437 0.0 9.519554412554497 3.06236571728692 0.0 9.413802333139637 3.3734781449586984 0.0 9.297883010624302 3.6809470956187282 0.0 9.170120089250267 3.988599798630599 0.0 9.032177938385686 4.291824983540085 0.0 8.882436354999946 4.593730146910614 0.0 8.722604191027168 4.890416764108683 0.0 8.551228479220748 5.184257419214463 0.0 8.369955112186512 5.472097533851427 0.0 8.177611099655978 5.755580870410995 0.0 7.975667108646588 6.032307532947318 0.0 7.763339912393812 6.303220487752735 0.0 7.54181224705839 6.566663386387341 0.0 7.310792761835974 6.82292786432367 0.0 7.071067811865473 7.071067811865476 0.0 6.822927864323669 7.310792761835977 0.0 6.566663386387339 7.541812247058393 0.0 6.303220487752734 7.763339912393816 0.0 6.032307532947317 7.975667108646592 0.0 5.755580870410994 8.17761109965598 0.0 5.472097533851426 8.369955112186513 0.0 5.184257419214461 8.55122847922075 0.0 4.890416764108683 8.72260419102717 0.0 4.593730146910614 8.882436354999948 0.0 4.291824983540086 9.032177938385688 0.0 3.9885997986305988 9.170120089250268 0.0 3.680947095618727 9.297883010624302 0.0 3.3734781449586975 9.413802333139635 0.0 3.06236571728692 9.519554412554493 0.0 2.752884504559744 9.613618168290884 0.0 2.440522289083657 9.697620891563343 0.0 2.131152778866431 9.770271917519846 0.0 1.8196305241214465 9.83305368416574 0.0 1.512352245101957 9.88497922491888 0.0 1.203604870590486 9.927302519591656 0.0 0.9002241894939873 9.95939847951597 0.0 0.596005474996372 9.98222307273156 0.0 0.29813529464588223 9.99555576818289 0.0 0.0 10.0 0.0 9.84375 0.0 0.0 9.839375209305032 0.2934769306670399 0.0 9.826250837220131 0.586692889449553 0.0 9.803782878273536 0.8861581865331436 0.0 9.77218841772304 1.1847985444875102 0.0 9.730526424529526 1.48872174127224 0.0 9.679412220350654 1.7911987971820507 0.0 9.6176114188086 2.097853516696644 0.0 9.546095565132669 2.4023891283167256 0.0 9.463405384411343 2.709870684175999 0.0 9.370811374858334 3.014516252954313 0.0 9.266711671684332 3.32076754894372 0.0 9.1526035885833 3.623432297249687 0.0 9.026836962855736 3.9262779267769967 0.0 8.891050158098414 4.224765218172273 0.0 8.743648286953077 4.521953113365137 0.0 8.586313500542373 4.814004002169486 0.0 8.417615534232928 5.1032533970392375 0.0 8.239174563558601 5.386596009884999 0.0 8.049835926223857 5.665649919310826 0.0 7.851047310073989 5.938052727745017 0.0 7.642037726262663 6.204732667631601 0.0 7.423971430698105 6.4640592709750395 0.0 7.19656162493229 6.716319616443615 0.0 6.960582377305078 6.96058237730508 0.0 6.716319616443614 7.19656162493229 0.0 6.4640592709750395 7.423971430698106 0.0 6.204732667631599 7.642037726262664 0.0 5.938052727745017 7.851047310073989 0.0 5.665649919310825 8.049835926223857 0.0 5.3865960098849985 8.239174563558601 0.0 5.103253397039237 8.41761553423293 0.0 4.814004002169486 8.586313500542373 0.0 4.521953113365137 8.743648286953077 0.0 4.224765218172273 8.891050158098414 0.0 3.9262779267769963 9.026836962855736 0.0 3.6234322972496855 9.1526035885833 0.0 3.320767548943718 9.266711671684332 0.0 3.014516252954312 9.370811374858333 0.0 2.7098706841759985 9.463405384411342 0.0 2.4023891283167256 9.546095565132669 0.0 2.0978535166966434 9.6176114188086 0.0 1.7911987971820493 9.679412220350654 0.0 1.4887217412722396 9.730526424529526 0.0 1.18479854448751 9.772188417723038 0.0 0.886158186533144 9.803782878273534 0.0 0.5866928894495538 9.82625083722013 0.0 0.29347693066704034 9.839375209305032 0.0 0.0 9.84375 0.0 9.6875 0.0 0.0 9.683194650427176 0.288818566688198 0.0 9.670278601708702 0.5773803039027346 0.0 9.6481672770311 0.8720921835723001 0.0 9.61707431585442 1.165992218384534 0.0 9.57607362414017 1.465091237442522 0.0 9.525770756535566 1.762767070242653 0.0 9.464950920097355 2.0645542545268563 0.0 9.394570238701993 2.3642559675497936 0.0 9.3131926005318 2.666856863792253 0.0 9.22206833716217 2.966666788621705 0.0 9.119621010229027 3.26805695292874 0.0 9.007324166542295 3.5659174988806446 0.0 8.8835538364612 3.8639560549233942 0.0 8.749922377811139 4.157705452804459 0.0 8.604860218906202 4.450176079819658 0.0 8.450022810057574 4.737591240230288 0.0 8.284002589245105 5.022249374864012 0.0 8.108394014930687 5.301094485918572 0.0 7.922060752791733 5.575718968210654 0.0 7.726427511501387 5.8437979225427155 0.0 7.52073554013151 6.106244847510464 0.0 7.306130614337818 6.361455155562738 0.0 7.082330488028603 6.609711368563557 0.0 6.85009694274468 6.850096942744683 0.0 6.6097113685635565 7.082330488028605 0.0 6.361455155562737 7.306130614337819 0.0 6.106244847510463 7.5207355401315095 0.0 5.8437979225427155 7.726427511501385 0.0 5.575718968210653 7.922060752791731 0.0 5.30109448591857 8.108394014930687 0.0 5.0222493748640105 8.284002589245105 0.0 4.737591240230287 8.450022810057574 0.0 4.450176079819659 8.604860218906202 0.0 4.157705452804459 8.749922377811139 0.0 3.863956054923394 8.8835538364612 0.0 3.5659174988806432 9.007324166542295 0.0 3.268056952928739 9.119621010229025 0.0 2.966666788621704 9.222068337162169 0.0 2.6668568637922525 9.313192600531796 0.0 2.364255967549793 9.394570238701991 0.0 2.064554254526856 9.464950920097353 0.0 1.7627670702426521 9.525770756535564 0.0 1.4650912374425216 9.576073624140168 0.0 1.165992218384534 9.617074315854419 0.0 0.8720921835723006 9.6481672770311 0.0 0.5773803039027354 9.6702786017087 0.0 0.28881856668819844 9.683194650427176 0.0 0.0 9.6875 0.0 9.53125 0.0 0.0 9.527014091549319 0.28416020270935605 0.0 9.514306366197271 0.5680677183559163 0.0 9.492551675788661 0.8580261806114565 0.0 9.461960213985801 1.1471858922815577 0.0 9.42162082375081 1.441460733612804 0.0 9.372129292720476 1.7343353433032553 0.0 9.312290421386107 2.031254992357068 0.0 9.243044912271316 2.3261228067828608 0.0 9.162979816652253 2.6238430434085065 0.0 9.073325299466006 2.9188173242890962 0.0 8.97253034877372 3.21534635691376 0.0 8.862044744501292 3.5084027005116014 0.0 8.740270710066664 3.8016341830697904 0.0 8.608794597523863 4.090645687436644 0.0 8.466072150859329 4.37839904627418 0.0 8.313732119572773 4.66117847829109 0.0 8.150389644257281 4.941245352688785 0.0 7.977613466302772 5.215592961952143 0.0 7.794285579359608 5.485788017110481 0.0 7.601807712928783 5.749543117340414 0.0 7.399433354000356 6.007757027389328 0.0 7.18828979797753 6.258851040150437 0.0 6.968099351124916 6.5031031206835 0.0 6.739611508184282 6.739611508184284 0.0 6.503103120683499 6.968099351124918 0.0 6.258851040150436 7.188289797977531 0.0 6.007757027389326 7.399433354000356 0.0 5.749543117340413 7.601807712928783 0.0 5.4857880171104805 7.794285579359608 0.0 5.21559296195214 7.977613466302772 0.0 4.941245352688785 8.150389644257281 0.0 4.66117847829109 8.313732119572773 0.0 4.378399046274181 8.466072150859327 0.0 4.090645687436645 8.608794597523861 0.0 3.8016341830697904 8.740270710066664 0.0 3.5084027005116005 8.86204474450129 0.0 3.2153463569137597 8.972530348773716 0.0 2.9188173242890962 9.073325299466003 0.0 2.6238430434085065 9.162979816652252 0.0 2.326122806782861 9.243044912271314 0.0 2.0312549923570677 9.312290421386106 0.0 1.7343353433032545 9.372129292720475 0.0 1.4414607336128034 9.421620823750809 0.0 1.1471858922815574 9.461960213985797 0.0 0.8580261806114569 9.492551675788661 0.0 0.5680677183559172 9.514306366197271 0.0 0.2841602027093566 9.527014091549319 0.0 0.0 9.53125 0.0 9.375 0.0 0.0 9.37083353267146 0.27950183873051415 0.0 9.35833413068584 0.5587551328090979 0.0 9.336936074546225 0.8439601776506128 0.0 9.30684611211718 1.1283795661785812 0.0 9.267168023361453 1.4178302297830858 0.0 9.218487828905385 1.7059036163638575 0.0 9.15962992267486 1.9979557301872797 0.0 9.091519585840638 2.2879896460159284 0.0 9.012767032772707 2.5808292230247605 0.0 8.924582261769842 2.8709678599564885 0.0 8.825439687318413 3.1626357608987807 0.0 8.716765322460288 3.450887902142559 0.0 8.596987583672128 3.739312311216188 0.0 8.467666817236587 4.02358592206883 0.0 8.327284082812454 4.306622012728702 0.0 8.177441429087974 4.584765716351892 0.0 8.016776699269457 4.86024133051356 0.0 7.846832917674858 5.130091437985714 0.0 7.6665104059274825 5.39585706601031 0.0 7.47718791435618 5.6552883121381115 0.0 7.278131167869203 5.90926920726819 0.0 7.070448981617243 6.1562469247381335 0.0 6.853868214221229 6.3964948728034425 0.0 6.629126073623883 6.629126073623886 0.0 6.396494872803441 6.85386821422123 0.0 6.156246924738133 7.070448981617244 0.0 5.90926920726819 7.278131167869203 0.0 5.655288312138111 7.47718791435618 0.0 5.395857066010309 7.6665104059274825 0.0 5.130091437985712 7.846832917674858 0.0 4.860241330513558 8.016776699269457 0.0 4.584765716351891 8.177441429087974 0.0 4.306622012728702 8.327284082812453 0.0 4.023585922068831 8.467666817236585 0.0 3.739312311216187 8.596987583672128 0.0 3.450887902142558 8.716765322460285 0.0 3.16263576089878 8.825439687318411 0.0 2.870967859956488 8.924582261769839 0.0 2.580829223024761 9.012767032772706 0.0 2.2879896460159292 9.091519585840636 0.0 1.99795573018728 9.159629922674856 0.0 1.7059036163638568 9.218487828905383 0.0 1.4178302297830854 9.267168023361451 0.0 1.1283795661785814 9.306846112117178 0.0 0.8439601776506135 9.336936074546223 0.0 0.5587551328090989 9.358334130685838 0.0 0.2795018387305147 9.37083353267146 0.0 0.0 9.375 0.0 9.21875 0.0 0.0 9.214652973793603 0.2748434747516723 0.0 9.202361895174409 0.5494425472622797 0.0 9.181320473303785 0.8298941746897693 0.0 9.15173201024856 1.1095732400756046 0.0 9.112
[...]
<PointData>
<DataArray Name="displ" NumberOfComponents="3" format="ascii" type="Float32">0.0 0.0 0.0 0.0011625546410913511 -0.002051375107959378 0.0 0.0022325814675487306 -0.003714625986287745 0.0 0.003648042552076023 -0.005361196193670771 0.0 0.005367336843556715 -0.0068973774148628824 0.0 0.007462215833805128 -0.00837164865832292 0.0 0.009909165998761606 -0.009735049387843218 0.0 0.01277679098375192 -0.010996327615252042 0.0 0.016034575725364073 -0.012098461683225719 0.0 0.019760044032145783 -0.013035422881010412 0.0 0.023917626959665504 -0.01374292939160513 0.0 0.02859108597527523 -0.01419314213349539 0.0 0.03373377821982272 -0.0143089151291382 0.0 0.03941478212854419 -0.014032215215170587 0.0 0.04555870604136249 -0.013279741191256446 0.0 0.05218678169397967 -0.011969590336727865 0.0 0.05917906167633161 -0.010043845414338188 0.0 0.06649330908911515 -0.007427780667538194 0.0 0.07398071518773955 -0.004126234405652225 0.0 0.08156897189522126 -0.00010311921446375753 0.0 0.08912880557327137 0.004584466787801904 0.0 0.0966179490863333 0.009947506439495508 0.0 0.10394039528485127 0.015963440375708293 0.0 0.11124489158448334 0.022683541534288646 0.0 0.11829251964911228 0.030670296364047955 0.0 0.12370544772236973 0.03742088708171223 0.0 0.1289910852982362 0.0437102089588975 0.0 0.13396828230596955 0.05013219588338987 0.0 0.1386086251223352 0.05648370885344679 0.0 0.14300457519721768 0.06280270650964206 0.0 0.1471684959973476 0.06916392609782283 0.0 0.15109959339522733 0.07553229706395072 0.0 0.15483039488352923 0.08197422237779155 0.0 0.15833794413629115 0.08843852855429736 0.0 0.16165433075886743 0.09499818369278311 0.0 0.16474543767859967 0.10158130885827388 0.0 0.16764440261257973 0.10826974684880256 0.0 0.17031313651393967 0.11497120668521693 0.0 0.1727867515289388 0.1217784871464993 0.0 0.17502937436348673 0.12858147819181692 0.0 0.17707794918672984 0.1354871717009758 0.0 0.17890435201959878 0.1423717138158425 0.0 0.18054691511906334 0.14936279897067728 0.0 0.1819931588109672 0.1563277207630706 0.0 0.18328016975582773 0.16344406537933845 0.0 0.18444640496479014 0.1705582850793862 0.0 0.18548229177628942 0.17815769844531457 0.0 0.18694741276045926 0.1857640635647306 0.0 0.18857389241640926 0.1977784644936339 0.0 0.0 0.0 0.0 0.0008544246600411844 -0.0015980740797451006 0.0 0.001960490800818569 -0.003192161716197886 0.0 0.003322267178744974 -0.00467233444398434 0.0 0.005008681277376017 -0.006072300926342485 0.0 0.007051300529608037 -0.007403782266453133 0.0 0.009437779816530474 -0.008624062525184282 0.0 0.012232285830875062 -0.009732876694520354 0.0 0.015403693492183424 -0.010681077401814202 0.0 0.01902920649113202 -0.011452127751544573 0.0 0.02307098575346988 -0.011992131400707883 0.0 0.027614307849386177 -0.012261166022124764 0.0 0.03260967139628327 -0.012196151472560967 0.0 0.038132123203226696 -0.01172991925930339 0.0 0.04410209772333456 -0.01079438465392271 0.0 0.05055428149873465 -0.009308125511510001 0.0 0.05736108324027111 -0.0072221085283728816 0.0 0.06450006030120678 -0.004473393204617793 0.0 0.07180930512748113 -0.0010618033206135835 0.0 0.07923488404341525 0.0030345906317034927 0.0 0.08663256892914935 0.007775564422605339 0.0 0.09396392797941314 0.013169398429199031 0.0 0.1011433940696891 0.01920208971214292 0.0 0.10819446820629831 0.026027281788922836 0.0 0.11522024551284443 0.03396327772647986 0.0 0.1209295776023129 0.040016223071326504 0.0 0.12622111063231917 0.046211779761051446 0.0 0.13116447173570076 0.05245203183519163 0.0 0.1358000992950294 0.05864115858732577 0.0 0.14015323052611378 0.06483226031619287 0.0 0.14427828546591326 0.07106698360439992 0.0 0.14816197965895123 0.07731908221742781 0.0 0.15184480360463537 0.08364695551702335 0.0 0.15530030035622128 0.09000277081595687 0.0 0.15856495971168785 0.09645442138213271 0.0 0.16160304896709574 0.10293270152923062 0.0 0.1644501218462439 0.10951553122462483 0.0 0.16706732927380843 0.11611308719333144 0.0 0.16949078645115997 0.12281502430211243 0.0 0.17168363556542132 0.129513645175833 0.0 0.17368306269325703 0.1363130295814192 0.0 0.17545793871145143 0.14309222922029605 0.0 0.17704718172556821 0.14997367679737594 0.0 0.1784263990825743 0.15683395634079347 0.0 0.17964472074302687 0.16381829188856775 0.0 0.18065936645248673 0.17085450250399503 0.0 0.18160885718781006 0.17811722399200725 0.0 0.18210507503358275 0.1859669762825541 0.0 0.18259958933475554 0.19585329876215682 0.0 0.0 0.0 0.0 0.0006253115956630529 -0.0013002591308928226 0.0 0.0016689913564646886 -0.002664828348534602 0.0 0.0030136546815660525 -0.0039982634535816255 0.0 0.004653703665172611 -0.005245376828009613 0.0 0.006648290611751087 -0.006433303559991217 0.0 0.008973610969507016 -0.007506450223774989 0.0 0.011695700021276744 -0.008462958347703598 0.0 0.014781681702807647 -0.009255051787278454 0.0 0.018308156454640512 -0.009863407044840776 0.0 0.02223649371895001 -0.010236808754695612 0.0 0.02665238497370853 -0.010333548290407963 0.0 0.03150601925444587 -0.010095323319506357 0.0 0.03687578482650753 -0.009454693872698705 0.0 0.042682560585539084 -0.008351509887520144 0.0 0.0489671402383686 -0.006705144401146954 0.0 0.0556029650054164 -0.004476390918256878 0.0 0.06257318723877157 -0.0016026167533783342 0.0 0.06971679288244957 0.0019085516758523017 0.0 0.07698151142744221 0.0060808093264237495 0.0 0.08422454989465786 0.010872590288837691 0.0 0.0914045439339137 0.016293399028227826 0.0 0.09844046979010866 0.02234163759701501 0.0 0.10534755761196793 0.029138586467361657 0.0 0.11220995310995277 0.036856374811092614 0.0 0.11811776064484551 0.0425560494413197 0.0 0.12344859492419849 0.04874677939313102 0.0 0.12834391997229144 0.05476714488835951 0.0 0.13296437635889183 0.060812801800799794 0.0 0.1372824399173841 0.06686956034043985 0.0 0.1413668059541149 0.0729791589833192 0.0 0.14520669639769399 0.0791131884016529 0.0 0.1488419403214807 0.08532692515817099 0.0 0.15224849545485145 0.09157260845687674 0.0 0.1554625676784891 0.09791584241346475 0.0 0.1584501586781721 0.10428808810793208 0.0 0.16124636261555433 0.11076507988121304 0.0 0.16381359953249375 0.11725816345677036 0.0 0.16618705257455632 0.1238550421165549 0.0 0.16833048584580032 0.13044934693290242 0.0 0.17027906647057767 0.1371438569060856 0.0 0.17200157609919822 0.1438179960886336 0.0 0.17353040384399074 0.15059626985509772 0.0 0.17484403058401848 0.157347859473181 0.0 0.17595637854942844 0.1642392331564335 0.0 0.1768743715324807 0.17114699949802004 0.0 0.1775308140583598 0.17830983936504802 0.0 0.17779669940194848 0.18605362139721135 0.0 0.17814348464693933 0.1944783728104133 0.0 0.0 0.0 0.0 0.00044081416767159903 -0.0010394640730407552 0.0 0.0014159719800177766 -0.0021770143204019247 0.0 0.0027191096253454724 -0.0033251259762555347 0.0 0.0043137216794202045 -0.0044243153863467435 0.0 0.006254913610265824 -0.005462196811139121 0.0 0.00852027431515069 -0.00638685995585274 0.0 0.011169429964539386 -0.007190067546655415 0.0 0.01417107762210741 -0.007826637552901434 0.0 0.017599107126580353 -0.008273836914877509 0.0 0.021415840893258584 -0.008484535216121173 0.0 0.025705987637780935 -0.008415212708411276 0.0 0.030422032144417018 -0.008012859455392327 0.0 0.03564352643757189 -0.007210069631459371 0.0 0.04129518653331432 -0.0059524555033998484 0.0 0.04742049704686066 -0.004160783945169411 0.0 0.053896396820206215 -0.0018008755150006645 0.0 0.06070795780003293 0.0011880484679091335 0.0 0.06769502172032298 0.00479398329951499 0.0 0.07480691268987688 0.009039345992979368 0.0 0.0818994854319509 0.0138760466041269 0.0 0.08893901816115442 0.01931893227402984 0.0 0.0958403488307658 0.025320435975877898 0.0 0.10265486698891631 0.03201708158895428 0.0 0.10941726707708734 0.038891637754100566 0.0 0.11534394935471944 0.04517772397856611 0.0 0.1206219077564739 0.051233481446837446 0.0 0.12552346537874218 0.05707188097108887 0.0 0.13010810371412596 0.0629871948903006 0.0 0.13439535105753436 0.06891096484469406 0.0 0.13843988486813202 0.07489615554955197 0.0 0.1422361212339931 0.08091224920848293 0.0 0.14582526770520854 0.0870113570357774 0.0 0.1491841143949143 0.09314632953846999 0.0 0.15234936903508736 0.09938062361295107 0.0 0.15528789718275587 0.10564634009777561 0.0 0.15803476222756635 0.11201725175509611 0.0 0.16055308468893323 0.11840581974692449 0.0 0.1628774359631396 0.12489779268120428 0.0 0.16497176297309646 0.13138849239033726 0.0 0.1668699237826797 0.13797839011039076 0.0 0.16853920481061546 0.14455002232742056 0.0 0.17001080088515358 0.15122330514844598 0.0 0.1712538088107991 0.15787617130963172 0.0 0.17228970260774182 0.16466234111163186 0.0 0.17308262397184618 0.17147447244054895 0.0 0.17359959510085154 0.1785565236257766 0.0 0.1738470294469919 0.18598359933140962 0.0 0.1741343346544846 0.1935501689151076 0.0 0.0 0.0 0.0 0.00028235561084736713 -0.0007641136977362349 0.0 0.0012006903057968739 -0.0016825844665253422 0.0 0.0024438327996126608 -0.002649368959140284 0.0 0.003984159480597 -0.003606212260739369 0.0 0.005874636608502537 -0.004492529635644972 0.0 0.008078512950686787 -0.005268055055664393 0.0 0.010655926835294373 -0.005918389245202622 0.0 0.013573800080530126 -0.0064002513767982125 0.0 0.01690421353475453 -0.006688718564215617 0.0 0.020610341535112632 -0.0067404868525983 0.0 0.024776009494816283 -0.00651136578595836 0.0 0.029356839019865306 -0.005953188195263827 0.0 0.03443357264594196 -0.0049989941251064865 0.0 0.039936038782666 -0.0035987832056781324 0.0 0.04590965521301666 -0.0016737815111911951 0.0 0.05223568767063986 0.0008070529357841541 0.0 0.05889868856774518 0.0039037407343657992 0.0 0.06573957328582795 0.007600461243272521 0.0 0.07270600588203831 0.011915229147567201 0.0 0.07965582888763026 0.01679787722016414 0.0 0.08655732466132085 0.02224290961367346 0.0 0.09333086554936419 0.02822868626307178 0.0 0.10003229943910841 0.03467573271666263 0.0 0.10652561414223706 0.04128657965275274 0.0 0.11248156403187712 0.04798710034247791 0.0 0.11779697109474793 0.05363158766697739 0.0 0.12270518079953512 0.059370241119052904 0.0 0.12724426413005416 0.06515780460854528 0.0 0.13149780498731897 0.07095200095706095 0.0 0.13550166769898056 0.07681563104719533 0.0 0.13925367243857675 0.08271373778729706 0.0 0.1427972561128606 0.08869815812416895 0.0 0.14610940424822075 0.0947221509017284 0.0 0.1492270303176191 0.10084726655638647 0.0 0.15211787829006465 0.10700622596993074 0.0 0.15481667551648667 0.11327105690178155 0.0 0.157287313447827 0.11955521952032702 0.0 0.15956353328048153 0.12594274024925886 0.0 0.1616097665815338 0.13233032666357789 0.0 0.16345810456317253 0.13881685910764457 0.0 0.16507606580212716 0.14528651077221588 0.0 0.1664909611234499 0.15185775897844983 0.0 0.167672685863782 0.15841084460401125 0.0 0.1686375030156522 0.16509391366620452 0.0 0.16934774431907876 0.17180864205871446 0.0 0.16980746359371296 0.17876424475803138 0.0 0.17008941420594756 0.18585709042384357 0.0 0.17036138816703092 0.1928721035464182 0.0 0.0 0.0 0.0 0.00014268133287738147 -0.0004102374898799276 0.0 0.0010262475806002657 -0.0011113821316412014 0.0 0.0021764257251257603 -0.0019757372575855583 0.0 0.0036727398193876345 -0.0027871868563598486 0.0 0.005508053817639887 -0.003525298524590475 0.0 0.007651284773632397 -0.004153670830158549 0.0 0.010157230043093822 -0.004651741260098786 0.0 0.012992165104981938 -0.004980596057643914 0.0 0.01622546743654534 -0.005112833756648028 0.0 0.019821503893520765 -0.005009602310845982 0.0 0.023863094013641933 -0.00462638593547744 0.0 0.028309740330374235 -0.003919982880436011 0.0 0.03324384495316224 -0.002823788680606444 0.0 0.03860132412655215 -0.0012912538403181714 0.0 0.04442988151156805 0.000756881807634242 0.0 0.05061517699582859 0.0033501561027289347 0.0 0.05714019812142255 0.006548901644089424 0.0 0.06384501637109985 0.010332474864399638 0.0 0.07067436237237003 0.014715384654862112 0.0 0.07748710110092491 0.01963325172650184 0.0 0.08425258889568935 0.02508120695927535 0.0 0.09090501458510668 0.030995612959510817 0.0 0.09744702167623391 0.037277805551387704 0.0 0.10375849009434326 0.04378694107752187 0.0 0.10973831516350217 0.0503073698997544 0.0 0.11507312422349762 0.055986468769281796 0.0 0.11988582536003102 0.061677452878324136 0.0 0.12438416255094163 0.06731512418711919 0.0 0.12859669809266636 0.07298995279921285 0.0 0.1325554503939202 0.07873535153898674 0.0 0.13626279468292876 0.08451513166648471 0.0 0.13976065269862709 0.0903853365938595 0.0 0.14302663475824867 0.09629829161930059 0.0 0.14609756263399803 0.10231421355238081 0.0 0.14894182985753496 0.10836645620382007 0.0 0.15159379201256643 0.11452535863513373 0.0 0.1540179676248758 0.12070543894305436 0.0 0.15624736114232318 0.12698893208449463 0.0 0.15824681692822165 0.13327409807173735 0.0 0.16004725751376087 0.13965782558113266 0.0 0.1616161564265458 0.14602650039631473 0.0 0.1629794575630967 0.15249598288449373 0.0 0.16410734211688532 0.15894875145206988 0.0 0.16501655755954805 0.1655272342512566 0.0 0.1656796483906575 0.17212852973267379 0.0 0.1661294952420236 0.17892148741643074 0.0 0.1664363767165867 0.18571069887968172 0.0 0.16669126228544942 0.19235572699826364 0.0 0.0 0.0 0.0 2.7545252513092892e-05 0.00029381659531323796 0.0 0.0007878179818563222 -0.0005319303538232393 0.0 0.001917650293202965 -0.0013097630004927285 0.0 0.003374914713676289 -0.0019661173150676468 0.0 0.005155842283071263 -0.002563677777113066 0.0 0.007239860208690486 -0.003046394369068308 0.0 0.00967533752896536 -0.0033941749111399107 0.0 0.012428158202708801 -0.0035721079779602 0.0 0.01556496208074948 -0.0035509436822897074 0.0 0.019051013193883033 -0.003296479643336692 0.0 0.022968228116394387 -0.0027643906550064504 0.0 0.027280505833433714 -0.0019164561366936854 0.0 0.03207270026585686 -0.0006863717601471988 0.0 0.03728780725267925 0.0009697585069923639 0.0 0.04297666886071121 0.0031325612753657756 0.0 0.049029664695432094 0.005831619855342906 0.0 0.055427234464824386 0.009128235577905439 0.0 0.06200653151209114 0.012997539228711316 0.0 0.06870671327545437 0.017446118778564158 0.0 0.0753861536622911 0.022398359092425473 0.0 0.08201758969909151 0.027835813722300908 0.0 0.0885343224894614 0.03367176508452549 0.0 0.09492212528667006 0.039825844334313396 0.0 0.10110021791465171 0.04619334878008479 0.0 0.10701164131468502 0.05240572843713472 0.0 0.11240530619884898 0.05845798250288254 0.0 0.11706404044674108 0.06398711277676176 0.0 0.12153542083767602 0.06945513131021018 0.0 0.125696554714224 0.07502669401661217 0.0 0.12960514251070862 0.0806511467968249 0.0 0.13326703493143996 0.08631437387143154 0.0 0.1367182719294796 0.09207093842965917 0.0 0.13993826396170428 0.09787305060901351 0.0 0.14296304563700138 0.10378000140930328 0.0 0.1457616358755116 0.10972573360238845 0.0 0.14836786755350068 0.11577902561017434 0.0 0.1507468504944338 0.12185542013417494 0.0 0.15293085118483296 0.12803539331839972 0.0 0.15488531123789215 0.13421863001614978 0.0 0.15664015595364808 0.14050005485355038 0.0 0.15816357907791062 0.14676786994702398 0.0 0.15948081044157825 0.15313511048730505 0.0 0.16056406801992024 0.15948536468581076 0.0 0.16143297604705598 0.16595421775245822 0.0 0.16207179680905737 0.1724273269769407 0.0 0.1625256534504395 0.17904063816605142 0.0 0.16285012746964272 0.18556649281269677 0.0 0.16308797627194566 0.1919386496006901 0.0 0.0 0.0 0.0 -5.9009044500619536e-05 0.00040613956057581664 0.0 0.0005077553369106255 -6.270949806798582e-05 0.0 0.0016781378854207162 -0.000634779170295445 0.0 0.0030867369334993478 -0.0011524697022802146 0.0 0.0048187027309637654 -0.0016117705877580206 0.0 0.006846000439496285 -0.0019496077881601373 0.0 0.009212047955091554 -0.002149815232138727 0.0 0.011884001085164768 -0.002179449723453654 0.0 0.014924902775931016 -0.0020077250327841805 0.0 0.018300789023238093 -0.0016055776638846699 0.0 0.022092555059350986 -0.0009291479284660134 0.0 0.026269024810545185 5.460401259853674e-05 0.0 0.030918475493478034 0.001411773251712067 0.0 0.035992126134461205 0.003184253552669515 0.0 0.041545285242628655 0.005454826775818152 0.0 0.047473713835675294 0.008254385019191188 0.0 0.05375467562854085 0.011646724886747088 0.0 0.06021936325417647 0.015601905331346162 0.0 0.0667978336381613 0.020116954315459044 0.0 0.0733474833703142 0.025101524243790946 0.0 0.07984255577015463 0.0305221062213126 0.0 0.08621621011836701 0.03628476733776571 0.0 0.09245144849110762 0.042318457665428445 0.0 0.09849845774278476 0.048513597275063394 0.0 0.1042231949428115 0.05462359564984872 0.0 0.10965064372745122 0.06115057821304459 0.0 0.11426137369172686 0.06622371223654885 0.0 0.11870600915674322 0.07161044429118542 0.0 0.12279705240513392 0.07706238968221242 0.0 0.1266571780707228 0.08256053355131004 0.0 0.13026950853252636 0.08810990990459636 0.0 0.13367323962704297 0.09375293757139999 0.0 0.13684677671612994 0.0994448050944913 0.0 0.13982568351642308 0.10524311465334328 0.0 0.14257927150992897 0.11108272971062813 0.0 0.14514078048418447 0.11703083985699762 0.0 0.14747582487231617 0.12300404032048506 0.0 0.1496160096683629 0.12908097952824127 0.0 0.15152745429629969 0.13516269693172667 0.0 0.15323946015690743 0.14134199737587497 0.0 0.15472129486587444 0.14750857160458752 0.0 0.15599835955145047 0.1537722490373587 0.0 0.15704562581228002 0.16001656766579775 0.0 0.15788675133179741 0.1663692218080348 0.0 0.15851429960513347 0.17270379361157687 0.0 0.15897439352146403 0.17913515691079562 0.0 0.15930444859696524 0.18543326897789517 0.0 0.15952686452550857 0.19158938640732887 0.0 0.0 0.0 0.0 -0.00014500407531117248 0.0003832998265058487 0.0 0.00033390798754061166 0.0004124354023252541 0.0 0.0014589101339754207 6.770448542928389e-05 0.0 0.0028050483034878977 -0.0003532847865792027 0.0 0.004498879502816276 -0.0006719236094698428 0.0 0.006470315118063795 -0.0008667258309022682 0.0 0.008769026658286367 -0.0009231788154542733 0.0 0.011361876509483454 -0.0008072338902679503 0.0 0.01430775449329105 -0.00048804835466352016 0.0 0.01757325972300017 5.85451620365204e-05 0.0 0.021237921422125702 0.0008754406544859466 0.0 0.02527597726346024 0.0019903282235765687 0.0 0.029780249832913996 0.0034691625206310635 0.0 0.03471153242945439 0.0053524490112809376 0.0 0.040131135589519154 0.007725625399726569 0.0 0.04594165976786079 0.010622250720415352 0.0 0.052117234574702215 0.014110383625325993 0.0 0.058478852952736374 0.018154608826146747 0.0 0.06494288497801697 0.02273872438800279 0.0 0.07136478477906931 0.027754986915910093 0.0 0.07772019932403455 0.03315732831494584 0.0 0.08394627665038784 0.0388502316783605 0.0 0.09002631774671777 0.04476793008107294 0.0 0.09591716707079474 0.05080558811283532 0.0 0.1014819755157356 0.05691274917362713 0.0 0.10685510549933201 0.06354119763679543 0.0 0.11152882330356223 0.06836638641886014 0.0 0.11588425691049281 0.07379791822233343 0.0 0.11990391745800176 0.07908695746729738 0.0 0.12371426719320924 0.08446589433609208 0.0 0.1272735758156663 0.08989984541515847 0.0 0.13062834381573443 0.09542999846350704 0.0 0.13375472212855635 0.10101201222919533 0.0 0.13668770469870598 0.10670217131859358 0.0 0.13939677106221654 0.11243613625621719 0.0 0.14191443419844596 0.11827959523396141 0.0 0.14420675436934968 0.12415012762357158 0.0 0.1463047326988227 0.13012449445797336 0.0 0.14817527090933963 0.13610495376348924 0.0 0.14984732345758955 0.14218204398649087 0.0 0.15129152470606372 0.14824658592620588 0.0 0.15253392050228662 0.1544049019509132 0.0 0.15355244257846587 0.16053961970720795 0.0 0.15437401568900933 0.16677046772427068 0.0 0.15499565755350306 0.17296157666440734 0.0 0.1554598674263475 0.17921565788458116 0.0 0.15578993719382705 0.18531409505367566 0.0 0.15599700831790297 0.19128727433580234 0.0 0.0 0.0 0.0 -0.00018311065424523806 0.0005903726753682345 0.0 0.00022619367553124717 0.0012220829474864914 0.0 0.0012211269452462653 0.0007633796629514394 0.0 0.0025386570266434823 0.00043040552977776335 0.0 0.004198192828202504 0.0002575903465425844 0.0 0.006113117215245533 0.00019619892378126746 0.0 0.008348148384792987 0.000281084598822704 0.0 0.010864041858507194 0.0005392979724