<?xml version="1.0" ?>
<VTKFile byte_order="LittleEndian" type="UnstructuredGrid" version="0.1">
<UnstructuredGrid>
<Piece NumberOfCells="2159" NumberOfPoints="4580">
<Points>
<DataArray NumberOfComponents="3" format="ascii" type="Float32">4.0065877562 3.488539924 0.0 4.2370731515 3.2046633769 0.0 4.4465386533 2.9070518149 0.0 4.7080997506 3.0780548628 0.0 4.9064648575 2.7508594298 0.0 5.1790462384 2.9036849537 0.0 5.3628556509 2.548271084 0.0 5.6451112115 2.6823906147 0.0 5.9273667721 2.8165101454 0.0 6.2096223326 2.9506296762 0.0 6.3922945698 2.5306511282 0.0 6.6828534139 2.645680725 0.0 6.973412258 2.7607103217 0.0 6.7741334538 3.2188687377 0.0 6.5419531433 3.6678125731 0.0 6.8145345242 3.820638097 0.0 6.5390274314 4.2750761983 0.0 6.2774663341 4.1040731504 0.0 6.0159052369 3.9330701025 0.0 5.7325107343 4.3357210393 0.0 5.4832711372 4.1472114289 0.0 5.1849959199 4.5145810781 0.0 4.9493142871 4.3093728473 0.0 4.7136326544 4.1041646165 0.0 4.4779510217 3.8989563857 0.0 4.242269389 3.6937481548 0.0 6.4 3.87 0.0 6.5 3.9 0.0 6.5 3.0 0.0 6.5 3.0 0.0 4.7 3.5 0.0 4.9 3.4 0.0 5.4816641 3.1482642 0.0 5.7 3.1 0.0 6.0 3.2 0.0 6.1 3.3 0.0 6.2 3.5 0.0 5.6 3.8 0.0 5.4 3.8 0.0 5.2 3.7 0.0 6.6 3.1 0.0 5.91213203 3.17071068 0.0 5.2 3.2 0.0 5.2 3.205 0.0 6.32401924 3.94160254 0.0 6.37598076 3.76839746 0.0 4.89840459 3.39687087 0.0 4.51339746 3.37679492 0.0 4.68660254 3.72320508 0.0 5.48093293 3.14482877 0.0 5.71339746 2.87679492 0.0 6.002 3.197 0.0 6.103 3.297 0.0 5.40002467 3.80314146 0.0 5.7 3.97320508 0.0 5.7 3.62679492 0.0 5.91321654 3.16736993 0.0 6.36339746 3.03660254 0.0 6.53660254 2.86339746 0.0 5.3 3.8 0.0 4.124274328459215 3.3485858841186413 0.0 4.34435589669224 3.057652337405842 0.0 4.577319201948939 2.992553338849307 0.0 4.810066019561674 2.9161447983081348 0.0 5.04275554795 2.82727219175 0.0 5.273946585781222 2.727527274728177 0.0 5.503983431196662 2.615330849348414 0.0 5.786238991800677 2.749450380050322 0.0 6.068494552350441 2.88356991080021 0.0 6.304457561359561 2.7421623615585378 0.0 6.53757399184968 2.588165926599873 0.0 6.82813283594968 2.703195523349873 0.0 6.877590066937702 2.991449848972949 0.0 6.661827266249964 3.44529761018296 0.0 6.678243833747503 3.7442253350486 0.0 6.680647249391215 4.050201108761299 0.0 6.408246882750581 4.189574674350379 0.0 6.146685785500581 4.01857162645038 0.0 5.877657977877736 4.136823750607903 0.0 5.607890935751628 4.241466234101232 0.0 5.337296189770749 4.3334640853300055 0.0 5.067155103500883 4.411976962700768 0.0 4.831473470753384 4.206768731902947 0.0 4.595791838051644 4.001560501101432 0.0 4.360110205350406 3.796352270250354 0.0 4.1244285726 3.5911440394 0.0 5.476393554417188 3.099603424762566 0.0 5.481093318962327 3.054394465520415 0.0 5.49483803521183 3.011069870221869 0.0 5.517059788590454 2.971419757242691 0.0 5.546840403896487 2.937082419918823 0.0 5.582949383157681 2.909476634307153 0.0 5.62389474827685 2.889743037123015 0.0 5.667984687709841 2.878696996050524 0.0 5.477511138902231 3.122331736733074 0.0 5.477591750812141 3.076879219924728 0.0 5.486861994865811 3.032382024982138 0.0 5.50493883611241 2.990678720639957 0.0 5.531075361961909 2.953492435547519 0.0 5.564191643685573 2.92235966073757 0.0 5.602919357723587 2.898566763732255 0.0 5.645658323116813 2.883096837432874 0.0 5.690642618987945 2.876589079947526 0.0 5.359062761404735 3.779531380702367 0.0 5.324828952285111 3.762414476142556 0.0 5.296200888305655 3.748100444152827 0.0 5.272260643250141 3.73613032162507 0.0 5.25224058943388 3.72612029471694 0.0 5.235498797656112 3.717749398828055 0.0 5.221498458452166 3.710749229226083 0.0 5.209790658802882 3.704895329401441 0.0 5.379531380702261 3.789765690351131 0.0 5.341945856844923 3.770972928422462 0.0 5.31051492029484 3.75525746014742 0.0 5.284230765777628 3.742115382888814 0.0 5.262250616342295 3.731125308171148 0.0 5.243869693544952 3.721934846772476 0.0 5.228498628054196 3.714249314027098 0.0 5.215644558627672 3.707822279313836 0.0 5.204895329401445 3.702447664700723 0.0 5.2097906588028 3.7048953294014 0.0 5.221498458452215 3.710749229226108 0.0 5.235498797656115 3.717749398828058 0.0 5.252240589433818 3.726120294716909 0.0 5.272260643249986 3.736130321624993 0.0 5.296200888305346 3.748100444152672 0.0 5.324828952284656 3.762414476142327 0.0 5.359062761404052 3.779531380702026 0.0 5.20489532940115 3.702447664700575 0.0 5.215644558627545 3.707822279313772 0.0 5.228498628054251 3.714249314027125 0.0 5.243869693544843 3.721934846772422 0.0 5.262250616341836 3.731125308170918 0.0 5.284230765777847 3.742115382888924 0.0 5.31051492029507 3.755257460147535 0.0 5.341945856844368 3.770972928422184 0.0 5.379531380700866 3.789765690350433 0.0 4.93966964432111 3.368906253269294 0.0 4.980291636882515 3.340012676827203 0.0 5.020710220867556 3.3108344908351 0.0 5.061349064894203 3.281964685060904 0.0 5.102649131841934 3.254051973864251 0.0 5.145099971122095 3.227930286632499 0.0 5.189254773939821 3.204825584436106 0.0 5.235580974494424 3.186495259083557 0.0 5.283681388877445 3.173489997432549 0.0 5.332758586870344 3.164807828725297 0.0 5.382223130408755 3.158634735959091 0.0 5.43172203889414 3.152734540610769 0.0 4.919146501783557 3.383050107971326 0.0 4.960032781769455 3.354532821179966 0.0 5.000499891168898 3.32542214545457 0.0 5.040975343696612 3.29632310083525 0.0 5.081887313267563 3.267842788998408 0.0 5.123697531138586 3.240703098293723 0.0 5.166927970919811 3.215900348589749 0.0 5.212145576917173 3.19497232309511 0.0 5.259461605230725 3.179366697169318 0.0 5.308141469040216 3.168707151715392 0.0 5.357468341420873 3.161542250100717 0.0 5.406985977364767 3.155796071626338 0.0 5.456389671427796 3.149166644454193 0.0 4.941231261285463 3.372177212165552 0.0 4.981824907530972 3.343429341295451 0.0 5.022220395564292 3.314402952820534 0.0 5.062842444735128 3.285695341751994 0.0 5.104132594810411 3.257960316321237 0.0 5.146578177457608 3.232035833480337 0.0 5.19072310911992 3.209144884496429 0.0 5.237004241154122 3.190989952113953 0.0 5.284999737307437 3.178002290669689 0.0 5.333939322595144 3.169155480202124 0.0 5.383257584883578 3.162684217300619 0.0 5.432606743111089 3.156445989235353 0.0 4.920724222799068 3.386249667584065 0.0 4.96157960679735 3.357876079174462 0.0 5.002020901172392 3.32891370953365 0.0 5.04247626476218 3.299971046899051 0.0 5.083374911013903 3.271660039697946 0.0 5.125178128482327 3.244707498262142 0.0 5.168402849140322 3.220111534568026 0.0 5.213599526496379 3.199394226375831 0.0 5.260838535465176 3.183893307330614 0.0 5.309393169074519 3.173158352616709 0.0 5.358576306977776 3.165752261242974 0.0 5.407946151947628 3.159674935754126 0.0 5.457197696714088 3.152726601762792 0.0 4.916420689239103 3.443767578130833 0.0 4.923382755839862 3.48999278293486 0.0 4.920581924083598 3.5366553511452 0.0 4.908140603758051 3.581715904616142 0.0 4.886602540262301 3.623205080932795 0.0 4.856909050324546 3.659309603998783 0.0 4.820357881941612 3.688451532905756 0.0 4.778546496566555 3.709357225519255 0.0 4.733302252377777 3.721113002753269 0.0 4.909357225407794 3.421453503136356 0.0 4.921113002705923 3.466697747307867 0.0 4.923205080750595 3.513397459726405 0.0 4.91554202569225 3.559511638865704 0.0 4.898458749808695 3.6030248738139 0.0 4.872701874232224 3.642035427399918 0.0 4.839397098022667 3.674838351235817 0.0 4.799999999716683 3.700000000141658 0.0 4.756232421561799 3.716420689318965 0.0 4.710007216747507 3.723382755854091 0.0 4.640488361144459 3.715542024934781 0.0 4.596975126466194 3.69845874912838 0.0 4.55796457311328 3.672701873705427 0.0 4.525161649455247 3.639397097713862 0.0 4.500000000655424 3.599999999672138 0.0 4.48357931150202 3.556232421807339 0.0 4.476617244903593 3.51000721728539 0.0 4.479418076577017 3.46334464934999 0.0 4.491859396738877 3.418284096123497 0.0 4.663344648723509 3.720581923318877 0.0 4.618284095532189 3.708140603028975 0.0 4.576794919470046 3.686602539650096 0.0 4.540690396611332 3.656909049899626 0.0 4.511548467847838 3.620357881760027 0.0 4.490642775300598 3.578546496665491 0.0 4.478886998047044 3.533302252770799 0.0 4.476794919961971 3.486602540633586 0.0 4.484457974896213 3.440488361756577 0.0 4.501541250579027 3.396975127029822 0.0 4.54284090011699 3.340937065926031 0.0 4.579050674025707 3.311927513392782 0.0 4.620467804760125 3.291015240764824 0.0 4.665309117615486 3.279100605814226 0.0 4.711644013024844 3.276696581681034 0.0 4.757477586660905 3.283906671310991 0.0 4.80083651812066 3.300420451234201 0.0 4.839854030340312 3.325526936549423 0.0 4.872850261882889 3.358145191694907 0.0 4.527186624682908 3.358100257280813 0.0 4.560191335505334 3.325490581903223 0.0 4.599215373822424 3.300394241569778 0.0 4.642578597222141 3.283891735060223 0.0 4.688414043853588 3.276693561910026 0.0 4.734748312677072 3.27910963253606 0.0 4.779586526340764 3.29103592534297 0.0 4.820998218709343 3.311958965272406 0.0 4.857200449222997 3.340977930977031 0.0 4.886634565688715 3.376843438816917 0.0 5.956302053064243 3.181173697033449 0.0 5.992803309317427 3.195406038664222 0.0 6.021231897258011 3.215413960129525 0.0 6.045194639152116 3.235552009362579 0.0 6.065332147933368 3.255674202336773 0.0 6.082265486422162 3.275548320290811 0.0 6.096579974538478 3.294954928569801 0.0 6.108711065553352 3.313792374018154 0.0 6.119114165347407 3.331975591916307 0.0 6.128321123430339 3.349366746592869 0.0 6.136644062153653 3.365933707093939 0.0 6.144279067143851 3.381684202403926 0.0 6.151358197774745 3.396640656750868 0.0 6.157975021244171 3.410830561601585 0.0 6.16419845673505 3.424282593268641 0.0 6.170080814423888 3.437024959935842 0.0 6.175662744763978 3.44908472980416 0.0 6.180976447596081 3.460487644406105 0.0 6.186047800568296 3.471258081247792 0.0 6.190897840189627 3.481419139197639 0.0 6.195543827479333 3.490992792007389 0.0 5.934094398209027 3.176434987746991 0.0 5.975103610434771 3.186889954422566 0.0 6.007253198992235 3.205072340775466 0.0 6.033430480317488 3.225224668602049 0.0 6.055475579156632 3.245400764706317 0.0 6.073985889319722 3.265451842919126 0.
[...]
<PointData>
<DataArray Name="displ" NumberOfComponents="3" format="ascii" type="Float32">0.010195491981490907 0.023711756043520195 0.0 0.00843800567639643 0.02023687737204744 0.0 0.0061446057520146485 0.01661152039459718 0.0 0.007457634499793547 0.013279144703821232 0.0 0.0051160794678552874 0.010088937015492063 0.0 0.006248436280587175 0.007569873300420052 0.0 0.004302848307220771 0.005883236786074912 0.0 0.005129181932191732 0.00450864942483484 0.0 0.0058336681626485155 0.00398105303565492 0.0 0.006282371426460324 0.0036608514345061577 0.0 0.004478248222262873 0.0025410855593553227 0.0 0.004929061894807734 0.0018645961793308775 0.0 0.00536923658091515 0.0011474424503711278 0.0 0.007323985700202006 0.002083655959171187 0.0 0.009953851659280975 0.0036243382114201153 0.0 0.01102860642891763 0.0022536140410899267 0.0 0.014504353001789773 0.004176755976413067 0.0 0.01327224496760338 0.005887494170628907 0.0 0.012037310599449989 0.007827463927291774 0.0 0.015232360716995304 0.010605972999525115 0.0 0.01371630476976662 0.012743603174891966 0.0 0.016609825588119177 0.01538477655546172 0.0 0.014929848709270638 0.01732678165520329 0.0 0.013269960506364965 0.019128356324340408 0.0 0.011959237554530364 0.020452901416612594 0.0 0.011211446751834787 0.02158476092512657 0.0 0.007772095755022991 0.02096180616055547 0.0 0.011619712582982427 0.004212581017144315 0.0 0.007772095755022991 0.02096180616055547 0.0 0.007772095755022991 0.02096180616055547 0.0 0.007772095755022991 0.02096180616055547 0.0 0.007524326436192083 0.017748951143412683 0.0 0.005257481515617574 0.012603668595194848 0.0 0.007772095755022991 0.02096180616055547 0.0 0.007772095755022991 0.02096180616055547 0.0 0.007772095755022991 0.02096180616055547 0.0 0.00846089316231547 0.005378513432348603 0.0 0.007772095755022991 0.02096180616055547 0.0 0.011068543596408223 0.013345972354512094 0.0 0.010161146708914565 0.015167206550977112 0.0 0.006759603900879556 0.0028938572089027914 0.0 0.005177965637865437 0.008631258042009137 0.0 0.007772095755022991 0.02096180616055547 0.0 0.007772095755022991 0.02096180616055547 0.0 0.012077718766343917 0.005449604548455976 0.0 0.010618275188958663 0.004479559835733467 0.0 0.011380321907886976 0.0106479085840803 0.0 0.01004307253252585 0.017455046517070437 0.0 0.010746508650639473 0.01924189756427309 0.0 0.008224291096939508 0.0051393432806282014 0.0 0.00594895626825056 0.0043200691017616834 0.0 0.007772095755022991 0.02096180616055547 0.0 0.007772095755022991 0.02096180616055547 0.0 0.010927645235112412 0.013572496408448253 0.0 0.012295397355322491 0.010780680709572218 0.0 0.009539685536481183 0.010632450832050718 0.0 0.007118076003865343 0.004445603262508584 0.0 0.006606706305628668 0.0034331775912604516 0.0 0.005715640205674882 0.002337215648379297 0.0 0.007772095755022991 0.02096180616055547 0.0 0.00946614365366268 0.02196087088748481 0.0 0.007275889295472155 0.01847526428338171 0.0 0.006708032325274646 0.015038521076609442 0.0 0.006137290495165211 0.011489001197152982 0.0 0.005629210694062091 0.008719207999374125 0.0 0.005157657761472296 0.0066205769269564434 0.0 0.004700334658644798 0.005073548253506877 0.0 0.005527567353502634 0.0041554983411212255 0.0 0.006075823231089311 0.0038584564337274287 0.0 0.0053622769003266076 0.003034401670992908 0.0 0.004711713515054241 0.0021897289418777283 0.0 0.005143750527030245 0.0015292973319542596 0.0 0.006310449946771799 0.0015671954279614744 0.0 0.008506300670689694 0.0027512336762510127 0.0 0.010482924279248445 0.002918267746118173 0.0 0.012719984032958563 0.0031170102164112595 0.0 0.013873873308702152 0.005014039210643717 0.0 0.012669910045208989 0.006818257022220173 0.0 0.013666406907610628 0.009243522775816844 0.0 0.014492851731514843 0.011689139675112778 0.0 0.015189678124761512 0.014073349443918547 0.0 0.015768799985333728 0.016376825731031035 0.0 0.014095919608202697 0.01824162996745545 0.0 0.01253129271204411 0.019895825277732603 0.0 0.011527915438185422 0.02096180616055547 0.0 0.01082793708065405 0.02245649959607605 0.0 0.00785552793856935 0.005176791790879849 0.0 0.007473179730678131 0.0051542164305448356 0.0 0.007101637836338633 0.0050840331164849544 0.0 0.006763756543200182 0.004978554145296405 0.0 0.006477170008613902 0.004844749792935227 0.0 0.006250135544260377 0.004697583841428816 0.0 0.006083719498979017 0.004554508584626568 0.0 0.005985947792332096 0.004425594278584836 0.0 0.00804216288813716 0.005166687973247219 0.0 0.007664736453465164 0.005172173064024607 0.0 0.007284747500142628 0.005125137712371967 0.0 0.006927481362713231 0.005035664888868986 0.0 0.006614081363299043 0.004914764764154459 0.0 0.006356551868171145 0.004772647152795065 0.0 0.006159337558913679 0.004625419694572336 0.0 0.0060273934799217645 0.004488417864765008 0.0 0.005959933556275363 0.004369969071667315 0.0 0.010885176283552997 0.013712722212459205 0.0 0.010731990823255612 0.01401946242912209 0.0 0.010604015603201471 0.014276306776491799 0.0 0.010497013456679105 0.01449164942848744 0.0 0.01040739472748446 0.014672524020482108 0.0 0.01033217816752801 0.014824853159799267 0.0 0.010268717074292034 0.0149537920724006 0.0 0.010214630552200643 0.015064517717709187 0.0 0.01097684838488722 0.013529354928267073 0.0 0.010808562984359917 0.013866067564413184 0.0 0.01066800036899988 0.0141478258731333 0.0 0.010550523980320888 0.0143838909962362 0.0 0.010452240455016021 0.01458197451339225 0.0 0.010369851647958409 0.014748529620702684 0.0 0.010300564953608168 0.0148890776823115 0.0 0.01024191600066894 0.015008581859318934 0.0 0.010190621866804899 0.015113123330615255 0.0 0.007772095755022991 0.02096180616055547 0.0 0.007772095755022991 0.02096180616055547 0.0 0.007772095755022991 0.02096180616055547 0.0 0.007772095755022991 0.02096180616055547 0.0 0.007772095755022991 0.02096180616055547 0.0 0.007772095755022991 0.02096180616055547 0.0 0.007772095755022991 0.02096180616055547 0.0 0.007772095755022991 0.02096180616055547 0.0 0.007772095755022991 0.02096180616055547 0.0 0.007772095755022991 0.02096180616055547 0.0 0.007772095755022991 0.02096180616055547 0.0 0.007772095755022991 0.02096180616055547 0.0 0.007772095755022991 0.02096180616055547 0.0 0.007772095755022991 0.02096180616055547 0.0 0.007772095755022991 0.02096180616055547 0.0 0.007772095755022991 0.02096180616055547 0.0 0.007772095755022991 0.02096180616055547 0.0 0.0110367555984962 0.010142686150660945 0.0 0.010666266655865063 0.00964877553491177 0.0 0.010285222485830215 0.009176006187620461 0.0 0.009909294354280649 0.008726069834190511 0.0 0.009551793531536804 0.00829568069517097 0.0 0.009222826802711043 0.00788063216477431 0.0 0.008935295340237022 0.007474895416002081 0.0 0.008705273193456904 0.007073837499376193 0.0 0.008535974437016668 0.006679556407620153 0.0 0.008420966006749289 0.006293598386468297 0.0 0.008344040735864392 0.00591396445709088 0.0 0.008287445547094784 0.005531907531927467 0.0 0.011211997887035753 0.010394738620982743 0.0 0.010853920367359073 0.009893676230191986 0.0 0.01047592946306828 0.009409720351320648 0.0 0.010095604937911444 0.00894841854507569 0.0 0.009727556198504251 0.008508848487306962 0.0 0.009382999560683232 0.008086662557073786 0.0 0.009073103887537464 0.007677163168061863 0.0 0.00881254746818464 0.007274205397151552 0.0 0.008613512822603428 0.006875791118505847 0.0 0.00847306161767936 0.006485692243678228 0.0 0.008378958213258802 0.006103545672649249 0.0 0.008314733961447884 0.0057239714841840405 0.0 0.008258521772889523 0.0053368309144645985 0.0 0.0072770009305571145 0.017382535159047995 0.0 0.007021006256277793 0.017025145956006797 0.0 0.006761009676782632 0.016670873371657003 0.0 0.006502595981590789 0.016314372412694792 0.0 0.0062522151226705016 0.015950960433080898 0.0 0.006017804845597614 0.015576202416140168 0.0 0.005810636986043492 0.015185398150916705 0.0 0.005645933209419677 0.014774995419640231 0.0 0.005527421888457701 0.014348966279715993 0.0 0.005445997768046936 0.01391424413747764 0.0 0.0053862848306776385 0.013475987134985379 0.0 0.005329868057487097 0.013037840754703378 0.0 0.0074020176766839835 0.017564281149014666 0.0 0.007149803225003984 0.017203065968996338 0.0 0.006891149127750442 0.01684796917472135 0.0 0.006631221017444286 0.016493198747745526 0.0 0.00637595567513062 0.016133794858305496 0.0 0.006132416143083987 0.01576528802829707 0.0 0.005909923818052483 0.015383099094181058 0.0 0.005722262710826033 0.014982606282757698 0.0 0.005581287477073232 0.014563477132674299 0.0 0.0054829205304831 0.014132314587839229 0.0 0.0054145447393408 0.013695306672161824 0.0 0.00535887305406755 0.013256672919791233 0.0 0.005296869919521468 0.012820013557056356 0.0 0.00791547993809318 0.01760187764144906 0.0 0.008331645223897911 0.01753504660406668 0.0 0.008754110369035662 0.017548503920740054 0.0 0.009164404549782297 0.01764030064886944 0.0 0.00954668589749 0.017805125924429288 0.0 0.009889458263113628 0.018033421478039165 0.0 0.01018518091584862 0.0183112502786337 0.0 0.010426917188855704 0.01862045074155987 0.0 0.010615597141828829 0.018938521013413968 0.0 0.007715775729269622 0.017665499554505675 0.0 0.008121626397569021 0.017558332369832966 0.0 0.008543323406549246 0.017531755628407912 0.0 0.008961876107492498 0.01758483419657027 0.0 0.009359872366260005 0.017713907631520885 0.0 0.009723779916043384 0.017911969171164846 0.0 0.010043695401326418 0.018167060794835033 0.0 0.010313135436846725 0.018462716878965967 0.0 0.010528228925469322 0.018779523975057368 0.0 0.010687928726574272 0.019092734978890923 0.0 0.010817905672781783 0.019507589374382375 0.0 0.010839921416654815 0.019715704098945283 0.0 0.01081018779529344 0.01984537452476769 0.0 0.010747712161491094 0.019884124519750232 0.0 0.010655882330617596 0.019807602793783647 0.0 0.01054785069334716 0.019603048870255792 0.0 0.01042661735275757 0.019253539018168064 0.0 0.010296434275876148 0.018778926342188553 0.0 0.010167023105428788 0.0181619358945402 0.0 0.010789063745002582 0.019379452920768567 0.0 0.010835078516601601 0.019618961489037866 0.0 0.010830369926710597 0.019789178643367294 0.0 0.010782819201526763 0.019876550060837744 0.0 0.010703768105207926 0.019858652003901377 0.0 0.010603146899297049 0.019719363870549952 0.0 0.01048723453393839 0.019444748765218536 0.0 0.010358828801727085 0.01903036442635264 0.0 0.010229387560972922 0.01848346072357113 0.0 0.01009925066123041 0.017818411915748986 0.0 0.009950378529070747 0.016660629381400477 0.0 0.009876391018713357 0.01582963714825428 0.0 0.00985235950463924 0.014964964456571462 0.0 0.009874044631127033 0.014106163050188211 0.0 0.009942993994813335 0.01328730116389579 0.0 0.010070111903976895 0.01254155945712053 0.0 0.010261454986532036 0.011897076542298969 0.0 0.01054020415249354 0.011370829394545643 0.0 0.010913447028307014 0.01095775089202934 0.0 0.00999059730937716 0.017065330108728682 0.0 0.009904617194851004 0.01624837124618865 0.0 0.009856653854601282 0.015396634014470624 0.0 0.009856203135470079 0.014532596540140098 0.0 0.009899607692838697 0.013691072352631064 0.0 0.009997005500180251 0.012904328142677945 0.0 0.010155462969863553 0.012206008477140871 0.0 0.010389367372162018 0.011620419666114016 0.0 0.010714850720414991 0.011150763339762748 0.0 0.011137121936716371 0.010790600493402793 0.0 0.005280166185368597 0.008200452460170106 0.0 0.00541818241692497 0.007845775343893382 0.0 0.0056109790176547035 0.007570108101309037 0.0 0.005803927107096218 0.007337633328078577 0.0 0.005995948124677028 0.007141765166351542 0.0 0.006185024992216761 0.006976286213403831 0.0 0.006369182293580283 0.006835342174956935 0.0 0.006547553451471419 0.006714619900453027 0.0 0.006719348464759966 0.006609447808586299 0.0 0.0068833684704247165 0.006514405237978678 0.0 0.007039500771416736 0.0064263220301402305 0.0 0.007187986454861122 0.0063430932439532935 0.0 0.007329216752710994 0.006263177649460444 0.0 0.007463669427280484 0.0061854547441366975 0.0 0.007591851520137911 0.006108759229164211 0.0 0.007714348269380612 0.006032262277575072 0.0 0.007831737028543156 0.00595474550429279 0.0 0.007944893126116959 0.005874622625177998 0.0 0.008054936538663246 0.005789989980647373 0.0 0.00816372267348933 0.005696778005734872 0.0 0.008277250144400543 0.005583261983709226 0.0 0.0052339653124843935 0.008416842967338483 0.0 0.005335714368136784 0.008017620283522969 0.0 0.005511488605639433 0.007705642015393291 0.0 0.005705092997063171 0.007451812626829651 0.0 0.005897994092306038 0.007237728079499206 0.0 0.006089034351049316 0.007057323035382554 0.0 0.006276048300358067 0.006904426603006423 0.0 0.00645747793075029 0.006773661444812177 0.0 0.006632988159975949 0.006661339791417599 0.0 0.006801086896120402 0.0065616147291734815 0.0 0.00696125740912304 0.0064702894728909215 0.0 0.0071136099308450424 0.006384795896051716 0.0 0.007258476359796707 0.0063033529023436416 0.0 0.007396330401573206 0.006224640815274932 0.0 0.007527618545654642 0.006147545594480555 0.0 0.007652922314582704 0.006071079834303421 0.0 0.007772804544539644 0.005994206192636653 0.0 0.007887926371608543 0.005915616454933518 0.0 0.007999325966512797 0.005833647686640366 0.0 0.008108459298444691 0.005745432990637266 0.0 0.0082180256701724 0.005644025924538582 0.0 0.008339557545918757 0.005502701432421094 0.0 0.005662120505553154 0.012466894748142927 0.0 0.006024703327090112 0.012245701073790916 0.0 0.006327445205416258 0.011948904394486709 0.0 0.006555703192350443 0.011589169931498585 0.0 0.006698449311972211 0.011182471081221704 0.0 0.0067473716892891755 0.010747208367883544 0.0 0.006698605843829317 0.010303158178349044 0.0 0.00655153398412351 0.009870299319548964 0.0 0.006311821735632686 0.009467364618045149 0.0 0.005991932639376656 0.00911354654907643 0.0 0.005608460356973506 0.008828852747890066 0.0 0.005463747742096704 0.012546257591059677 0.0 0.005849835322440388 0.012366382631712997 0.0 0.006184489084782015 0.012105960148038991 0.0 0.006451645850475848 0.01177592253954419 0.0 0.006638286840232407 0.011390567194377239 0.0 0.006734934037901401 0.010967179570055854 0.0 0.006735292465834986 0.010525006656360445 0.0 0.0066371036126835845 0.01008412453492726 0.0 0.006442671820268796 0.009663864108027257 0.0 0.0061610696122786765 0.009282987039383166 0.0 0.005807124296489406 0.008961273211281793 0.0 0.005398208611325246 0.008718312545676496 0.0 0.00597040066407991 0.004241967005353231 0.0 0.006037834921189742 0.004196537017416764 0.0 0.006142157349068667 0.0041893730574588 0.0 0.006281283143623082 0.004219921626048734 0.0 0.0064478010497858625 0.004271974709970034 0.0 0.006637330488059205 0.004336702317465298 0.0 0.006829168190519821 0.004389900885453947 0.0 0.0069975168766213056 0.004423033882754474 0.0 0.005953785576580293 0.004277431633444553 0.0 0.005999453239288448 0.0042143722525690526 0.0 0.0060864021975950144 0.004187678928945091 0.0 0.006208377785691011 0.0042002576795666146 0.0 0.006362423772202597 0.004243195527138768 0.0 0.006541567456221546 0.00430379018613695 0.0 0.006735142002367252 0.0043641861635954 0.0 0.006918479999948379 0.004409005797913755 0.0 0.007062608516756191 0.004432881155534073 0.0 0.011285202511624962 0.013519541067491833 0.0 0.01161583786092747 0.013371339963053765 0.0 0.011908114326707471 0.013133326036043383 0.0 0.012151786312525132 0.012818851397944376 0.0 0.012335882108058284 0.0124469946404457 0.0 0.012446930954952737 0.012039831419302085 0.0 0.012477226381132085 0.01161519902908304 0.0 0.012425646918795387 0.011188784475393574 0.0 0.01110920399044223 0.013557930848347496 0.0 0.011454632176746792 0.013456853887195181 0.0 0.01176767868728518 0.013262670203869188 0.0 0.01203715504142849 0.012984485766494261 0.0 0.012252500117951102 0.012638498049131548 0.0 0.012401411608206531 0.012246527051946501 0.0 0.012472628315928902 0.011828755776509577 0.0 0.012461756622713092 0.011401194852487877 0.0 0.012370378545539306 0.010981342326261785 0.0 0.012093158254914669 0.01040843643622736 0.0 0.011831088499970676 0.010094629315500972 0.0 0.011521843797397598 0.009861948591916685 0.0 0.011181221483482008 0.009728933932884086 0.0 0.010822936898339745 0.009707049156962789 0.0 0.010458988385021434 0.009799882543472483 0.0 0.010107871135014941 0.009996564383753898 0.0 0.00979345892464831 0.010281129359478265 0.0 0.012203227354826556 0.010588416008568179 0.0 0.011969197885432735 0.010242886120629536 0.0 0.011681607201621131 0.009967438527726406 0.0 0.011355002491757828 0.009782578396168902 0.0 0.011003695370745055 0.009703698684342541 0.0 0.010640376964574635 0.009739879082960081 0.0 0.010280092927471332 0.009886224830225221 0.0 0.009944267746742385 0.01012915731088709 0.0 0.009657326921700007 0.010449843280949838 0.0 0.009366769997993784 0.011028600697982562 0.0 0.009287486400445454 0.011446905211091696 0.0 0.009307420366570495 0.01186608862772541 0.0 0.009424828042717567 0.012265566152916251 0.0 0.009632040758541516 0.012625592360832948 0.0 0.009917009104782675 0.012927621416257501 0.0 0.010264265024537866 0.013155660457809921 0.0 0.010655273401225235 0.013297681582041995 0.0 0.009442088172682182 0.01082616315082304 0.0 0.009314884798406866 0.011236256159540941 0.0 0.009285046064324396 0.011657663827595846 0.0 0.009354317299678798 0.012069550446029764 0.0 0.009517887309460087 0.012451720237502892 0.0 0.009765709851391196 0.012784927891898943 0.0 0.01008393378987733 0.013051743257599712 0.0 0.01045559626047677 0.013238005435979418 0.0 0.010860514822044242 0.013333854229122394 0.0 0.010775742966642075 0.013873077277636465 0.0 0.010649979196965626 0.01413295693216736 0.0 0.010545288054957996 0.014354033304643403 0.0 0.010457547578956896 0.01454114677420814 0.0 0.010383741215415633 0.014699118313207185 0.0 0.010321501288674206 0.01483217779424523 0.0 0.010269104567293812 0.014943940008687994 0.0 0.010225178081883456 0.015037247794420911 0.0 0.010189309525986888 0.015113845865346046 0.0 0.010851335470676038 0.013721575869493933 0.0 0.0107125003049312 0.014002867314799118 0.0 0.01059742235191272 0.014243597199899405 0.0 0.010501290203113741 0.014447755538896295 0.0 0.010420555538080332 0.014620312750028569 0.0 0.010352563516075988 0.014765832603042754 0.0 0.010295246951336413 0.014888277287776598 0.0 0.010247066195484286 0.014990868461448393 0.0 0.010207016829553616 0.015076082847830533 0.0 0.010174335837775128 0.015143216793859077 0.0 0.007139817902884328 0.004345374085877192 0.0 0.007180890391953263 0.004309128464402235 0.0 0.007248781789126315 0.004313653119502844 0.0 0.007325470359928127 0.004339243445776721 0.0 0.007408964542417919 0.0043787872847534425 0.0 0.007496570620752639 0.004427549568459652 0.0 0.0075858361102338805 0.004480808102353842 0.0 0.0076756475892805435 0.0045359829959652105 0.0 0.007763568582011534 0.004589520518365888 0.0 0.007847938104743067 0.004640507753441708 0.0 0.007928376322925446 0.004689174220114735 0.0 0.008004706609247184 0.004735835828405756 0.0 0.00807678222157822 0.0047808671612040105 0.0 0.008144502878050047 0.004824866117682334 0.0 0.00820772119874402 0.004868296725092483 0.0 0.008266254132406125 0.004911855714259412 0.0 0.008319833799791645 0.004956554287050241 0.0 0.008367965318425036 0.005003491208687322 0.0 0.008409971439363048 0.005055175509056828 0.0 0.008443254531738253 0.005114346108832051 0.0 0.008463677528738688 0.005195103789727786 0.0 0.007130496497646925 0.0043916944468148245 0.0 0.007154875234915052 0.0043205672529900135 0.0 0.007212815862376177 0.004308274594520307 0.0 0.0072853863844910055 0.004323925290718103 0.0 0.007365835102645336 0.004357229808945487 0.0 0.0074516119434326926 0.004401902484131876 0.0 0.007540358477007175 0.004453257020554716 0.0 0.0076300454938650905 0.004507874696968002 0.0 0.007719271094448774 0.004562576161829564 0.0 0.007805561192096659 0.004614879571801032 0.0 0.007888057832436065 0.0046647197677932555 0.0 0.007966509104675362 0.004712375561457433 0.0 0.00804076807949521 0.0047582000431683905 0.0 0.008110693382675838 0.004802658728689506 0.0 0.008176225647295024 0.004846294676896585 0.0 0.008237166056185477 0.004889701296670527 0.0 0.008293270083396528 0.0049336881103714475 0.0 0.0