<?xml version="1.0" ?>
<VTKFile byte_order="LittleEndian" type="UnstructuredGrid" version="0.1">
<UnstructuredGrid>
<Piece NumberOfCells="25" NumberOfPoints="1617">
<Points>
<DataArray NumberOfComponents="3" format="ascii" type="Float32">10.0 0.0 0.0 9.99555576818289 0.29813529464588173 0.0 9.98222307273156 0.5960054749963711 0.0 9.959398479515972 0.9002241894939869 0.0 9.927302519591658 1.2036048705904863 0.0 9.884979224918881 1.5123522451019578 0.0 9.833053684165742 1.8196305241214477 0.0 9.770271917519848 2.1311527788664315 0.0 9.697620891563346 2.4405222890836566 0.0 9.613618168290888 2.7528845045597437 0.0 9.519554412554497 3.06236571728692 0.0 9.413802333139637 3.3734781449586984 0.0 9.297883010624302 3.6809470956187282 0.0 9.170120089250267 3.988599798630599 0.0 9.032177938385686 4.291824983540085 0.0 8.882436354999946 4.593730146910614 0.0 8.722604191027168 4.890416764108683 0.0 8.551228479220748 5.184257419214463 0.0 8.369955112186512 5.472097533851427 0.0 8.177611099655978 5.755580870410995 0.0 7.975667108646588 6.032307532947318 0.0 7.763339912393812 6.303220487752735 0.0 7.54181224705839 6.566663386387341 0.0 7.310792761835974 6.82292786432367 0.0 7.071067811865473 7.071067811865476 0.0 6.822927864323669 7.310792761835977 0.0 6.566663386387339 7.541812247058393 0.0 6.303220487752734 7.763339912393816 0.0 6.032307532947317 7.975667108646592 0.0 5.755580870410994 8.17761109965598 0.0 5.472097533851426 8.369955112186513 0.0 5.184257419214461 8.55122847922075 0.0 4.890416764108683 8.72260419102717 0.0 4.593730146910614 8.882436354999948 0.0 4.291824983540086 9.032177938385688 0.0 3.9885997986305988 9.170120089250268 0.0 3.680947095618727 9.297883010624302 0.0 3.3734781449586975 9.413802333139635 0.0 3.06236571728692 9.519554412554493 0.0 2.752884504559744 9.613618168290884 0.0 2.440522289083657 9.697620891563343 0.0 2.131152778866431 9.770271917519846 0.0 1.8196305241214465 9.83305368416574 0.0 1.512352245101957 9.88497922491888 0.0 1.203604870590486 9.927302519591656 0.0 0.9002241894939873 9.95939847951597 0.0 0.596005474996372 9.98222307273156 0.0 0.29813529464588223 9.99555576818289 0.0 0.0 10.0 0.0 9.84375 0.0 0.0 9.839375209305032 0.2934769306670399 0.0 9.826250837220131 0.586692889449553 0.0 9.803782878273536 0.8861581865331436 0.0 9.77218841772304 1.1847985444875102 0.0 9.730526424529526 1.48872174127224 0.0 9.679412220350654 1.7911987971820507 0.0 9.6176114188086 2.097853516696644 0.0 9.546095565132669 2.4023891283167256 0.0 9.463405384411343 2.709870684175999 0.0 9.370811374858334 3.014516252954313 0.0 9.266711671684332 3.32076754894372 0.0 9.1526035885833 3.623432297249687 0.0 9.026836962855736 3.9262779267769967 0.0 8.891050158098414 4.224765218172273 0.0 8.743648286953077 4.521953113365137 0.0 8.586313500542373 4.814004002169486 0.0 8.417615534232928 5.1032533970392375 0.0 8.239174563558601 5.386596009884999 0.0 8.049835926223857 5.665649919310826 0.0 7.851047310073989 5.938052727745017 0.0 7.642037726262663 6.204732667631601 0.0 7.423971430698105 6.4640592709750395 0.0 7.19656162493229 6.716319616443615 0.0 6.960582377305078 6.96058237730508 0.0 6.716319616443614 7.19656162493229 0.0 6.4640592709750395 7.423971430698106 0.0 6.204732667631599 7.642037726262664 0.0 5.938052727745017 7.851047310073989 0.0 5.665649919310825 8.049835926223857 0.0 5.3865960098849985 8.239174563558601 0.0 5.103253397039237 8.41761553423293 0.0 4.814004002169486 8.586313500542373 0.0 4.521953113365137 8.743648286953077 0.0 4.224765218172273 8.891050158098414 0.0 3.9262779267769963 9.026836962855736 0.0 3.6234322972496855 9.1526035885833 0.0 3.320767548943718 9.266711671684332 0.0 3.014516252954312 9.370811374858333 0.0 2.7098706841759985 9.463405384411342 0.0 2.4023891283167256 9.546095565132669 0.0 2.0978535166966434 9.6176114188086 0.0 1.7911987971820493 9.679412220350654 0.0 1.4887217412722396 9.730526424529526 0.0 1.18479854448751 9.772188417723038 0.0 0.886158186533144 9.803782878273534 0.0 0.5866928894495538 9.82625083722013 0.0 0.29347693066704034 9.839375209305032 0.0 0.0 9.84375 0.0 9.6875 0.0 0.0 9.683194650427176 0.288818566688198 0.0 9.670278601708702 0.5773803039027346 0.0 9.6481672770311 0.8720921835723001 0.0 9.61707431585442 1.165992218384534 0.0 9.57607362414017 1.465091237442522 0.0 9.525770756535566 1.762767070242653 0.0 9.464950920097355 2.0645542545268563 0.0 9.394570238701993 2.3642559675497936 0.0 9.3131926005318 2.666856863792253 0.0 9.22206833716217 2.966666788621705 0.0 9.119621010229027 3.26805695292874 0.0 9.007324166542295 3.5659174988806446 0.0 8.8835538364612 3.8639560549233942 0.0 8.749922377811139 4.157705452804459 0.0 8.604860218906202 4.450176079819658 0.0 8.450022810057574 4.737591240230288 0.0 8.284002589245105 5.022249374864012 0.0 8.108394014930687 5.301094485918572 0.0 7.922060752791733 5.575718968210654 0.0 7.726427511501387 5.8437979225427155 0.0 7.52073554013151 6.106244847510464 0.0 7.306130614337818 6.361455155562738 0.0 7.082330488028603 6.609711368563557 0.0 6.85009694274468 6.850096942744683 0.0 6.6097113685635565 7.082330488028605 0.0 6.361455155562737 7.306130614337819 0.0 6.106244847510463 7.5207355401315095 0.0 5.8437979225427155 7.726427511501385 0.0 5.575718968210653 7.922060752791731 0.0 5.30109448591857 8.108394014930687 0.0 5.0222493748640105 8.284002589245105 0.0 4.737591240230287 8.450022810057574 0.0 4.450176079819659 8.604860218906202 0.0 4.157705452804459 8.749922377811139 0.0 3.863956054923394 8.8835538364612 0.0 3.5659174988806432 9.007324166542295 0.0 3.268056952928739 9.119621010229025 0.0 2.966666788621704 9.222068337162169 0.0 2.6668568637922525 9.313192600531796 0.0 2.364255967549793 9.394570238701991 0.0 2.064554254526856 9.464950920097353 0.0 1.7627670702426521 9.525770756535564 0.0 1.4650912374425216 9.576073624140168 0.0 1.165992218384534 9.617074315854419 0.0 0.8720921835723006 9.6481672770311 0.0 0.5773803039027354 9.6702786017087 0.0 0.28881856668819844 9.683194650427176 0.0 0.0 9.6875 0.0 9.53125 0.0 0.0 9.527014091549319 0.28416020270935605 0.0 9.514306366197271 0.5680677183559163 0.0 9.492551675788661 0.8580261806114565 0.0 9.461960213985801 1.1471858922815577 0.0 9.42162082375081 1.441460733612804 0.0 9.372129292720476 1.7343353433032553 0.0 9.312290421386107 2.031254992357068 0.0 9.243044912271316 2.3261228067828608 0.0 9.162979816652253 2.6238430434085065 0.0 9.073325299466006 2.9188173242890962 0.0 8.97253034877372 3.21534635691376 0.0 8.862044744501292 3.5084027005116014 0.0 8.740270710066664 3.8016341830697904 0.0 8.608794597523863 4.090645687436644 0.0 8.466072150859329 4.37839904627418 0.0 8.313732119572773 4.66117847829109 0.0 8.150389644257281 4.941245352688785 0.0 7.977613466302772 5.215592961952143 0.0 7.794285579359608 5.485788017110481 0.0 7.601807712928783 5.749543117340414 0.0 7.399433354000356 6.007757027389328 0.0 7.18828979797753 6.258851040150437 0.0 6.968099351124916 6.5031031206835 0.0 6.739611508184282 6.739611508184284 0.0 6.503103120683499 6.968099351124918 0.0 6.258851040150436 7.188289797977531 0.0 6.007757027389326 7.399433354000356 0.0 5.749543117340413 7.601807712928783 0.0 5.4857880171104805 7.794285579359608 0.0 5.21559296195214 7.977613466302772 0.0 4.941245352688785 8.150389644257281 0.0 4.66117847829109 8.313732119572773 0.0 4.378399046274181 8.466072150859327 0.0 4.090645687436645 8.608794597523861 0.0 3.8016341830697904 8.740270710066664 0.0 3.5084027005116005 8.86204474450129 0.0 3.2153463569137597 8.972530348773716 0.0 2.9188173242890962 9.073325299466003 0.0 2.6238430434085065 9.162979816652252 0.0 2.326122806782861 9.243044912271314 0.0 2.0312549923570677 9.312290421386106 0.0 1.7343353433032545 9.372129292720475 0.0 1.4414607336128034 9.421620823750809 0.0 1.1471858922815574 9.461960213985797 0.0 0.8580261806114569 9.492551675788661 0.0 0.5680677183559172 9.514306366197271 0.0 0.2841602027093566 9.527014091549319 0.0 0.0 9.53125 0.0 9.375 0.0 0.0 9.37083353267146 0.27950183873051415 0.0 9.35833413068584 0.5587551328090979 0.0 9.336936074546225 0.8439601776506128 0.0 9.30684611211718 1.1283795661785812 0.0 9.267168023361453 1.4178302297830858 0.0 9.218487828905385 1.7059036163638575 0.0 9.15962992267486 1.9979557301872797 0.0 9.091519585840638 2.2879896460159284 0.0 9.012767032772707 2.5808292230247605 0.0 8.924582261769842 2.8709678599564885 0.0 8.825439687318413 3.1626357608987807 0.0 8.716765322460288 3.450887902142559 0.0 8.596987583672128 3.739312311216188 0.0 8.467666817236587 4.02358592206883 0.0 8.327284082812454 4.306622012728702 0.0 8.177441429087974 4.584765716351892 0.0 8.016776699269457 4.86024133051356 0.0 7.846832917674858 5.130091437985714 0.0 7.6665104059274825 5.39585706601031 0.0 7.47718791435618 5.6552883121381115 0.0 7.278131167869203 5.90926920726819 0.0 7.070448981617243 6.1562469247381335 0.0 6.853868214221229 6.3964948728034425 0.0 6.629126073623883 6.629126073623886 0.0 6.396494872803441 6.85386821422123 0.0 6.156246924738133 7.070448981617244 0.0 5.90926920726819 7.278131167869203 0.0 5.655288312138111 7.47718791435618 0.0 5.395857066010309 7.6665104059274825 0.0 5.130091437985712 7.846832917674858 0.0 4.860241330513558 8.016776699269457 0.0 4.584765716351891 8.177441429087974 0.0 4.306622012728702 8.327284082812453 0.0 4.023585922068831 8.467666817236585 0.0 3.739312311216187 8.596987583672128 0.0 3.450887902142558 8.716765322460285 0.0 3.16263576089878 8.825439687318411 0.0 2.870967859956488 8.924582261769839 0.0 2.580829223024761 9.012767032772706 0.0 2.2879896460159292 9.091519585840636 0.0 1.99795573018728 9.159629922674856 0.0 1.7059036163638568 9.218487828905383 0.0 1.4178302297830854 9.267168023361451 0.0 1.1283795661785814 9.306846112117178 0.0 0.8439601776506135 9.336936074546223 0.0 0.5587551328090989 9.358334130685838 0.0 0.2795018387305147 9.37083353267146 0.0 0.0 9.375 0.0 9.21875 0.0 0.0 9.214652973793603 0.2748434747516723 0.0 9.202361895174409 0.5494425472622797 0.0 9.181320473303785 0.8298941746897693 0.0 9.15173201024856 1.1095732400756046 0.0 9.1127
[...]
<CellData>
<DataArray Name="num" NumberOfComponents="1" format="ascii" type="Float32">0 1 2 3 4 5 6 7 8 9 10 11 12 13 14 15 16 17 18 19 20 21 22 23 24</DataArray>
</CellData>
</Piece>
</UnstructuredGrid>
</VTKFile>
