<?xml version="1.0" ?>
<VTKFile byte_order="LittleEndian" type="UnstructuredGrid" version="0.1">
<UnstructuredGrid>
<Piece NumberOfCells="841" NumberOfPoints="900">
<Points>
<DataArray NumberOfComponents="3" format="ascii" type="Float32">10.0 0.0 0.0 9.987872878365437 0.4923366385026801 0.0 9.950578694597542 0.9929670904020319 0.0 9.886836388476402 1.5001554011164597 0.0 9.795506604306603 2.011976730726704 0.0 9.675621935166237 2.5263293862301364 0.0 9.526416408294516 3.0409522218833054 0.0 9.34735315421337 3.5534474824341142 0.0 9.13814914227909 4.061308933516867 0.0 8.898795860939817 4.561954868838615 0.0 8.629574880815328 5.0527653197433455 0.0 8.331067367291825 5.531122537211165 0.0 8.004156805612288 5.9944535890413295 0.0 7.650024458222793 6.440273735532756 0.0 7.2701373779805465 6.866229132885833 0.0 6.86622913288583 7.270137377980549 0.0 6.440273735532754 7.650024458222797 0.0 5.994453589041329 8.004156805612288 0.0 5.531122537211164 8.331067367291826 0.0 5.0527653197433455 8.629574880815332 0.0 4.561954868838614 8.898795860939819 0.0 4.061308933516866 9.138149142279092 0.0 3.5534474824341147 9.347353154213371 0.0 3.040952221883305 9.526416408294516 0.0 2.5263293862301355 9.675621935166237 0.0 2.0119767307267034 9.795506604306603 0.0 1.5001554011164588 9.886836388476402 0.0 0.992967090402032 9.95057869459754 0.0 0.492336638502681 9.987872878365437 0.0 0.0 10.0 0.0 9.827586206896552 0.0 0.0 9.815668173566031 0.48384807576987543 0.0 9.77901699296655 0.9758469681537212 0.0 9.716373692123364 1.4742906528213489 0.0 9.626618559404768 1.9772874767486577 0.0 9.508800867318547 2.4827719830192727 0.0 9.36216784953082 2.9885220111611814 0.0 9.18619189293383 3.492181146530079 0.0 8.980594846722559 3.991286365697611 0.0 8.745368346096033 4.4833004745482965 0.0 8.480789107008173 4.965648676299497 0.0 8.18742827475231 5.435758355535112 0.0 7.8661541020672505 5.891100940954413 0.0 7.518127484805163 6.3292345331959865 0.0 7.144790181808471 6.74784587197401 0.0 6.747845871974008 7.144790181808471 0.0 6.329234533195985 7.518127484805163 0.0 5.891100940954412 7.8661541020672505 0.0 5.4357583555351106 8.187428274752312 0.0 4.965648676299495 8.480789107008173 0.0 4.483300474548294 8.74536834609603 0.0 3.9912863656976096 8.980594846722557 0.0 3.4921811465300787 9.186191892933833 0.0 2.9885220111611783 9.362167849530818 0.0 2.482771983019271 9.508800867318545 0.0 1.9772874767486575 9.626618559404768 0.0 1.474290652821348 9.71637369212336 0.0 0.9758469681537214 9.77901699296655 0.0 0.48384807576987615 9.81566817356603 0.0 0.0 9.827586206896553 0.0 9.655172413793103 0.0 0.0 9.643463468766628 0.4753595130370705 0.0 9.60745529133556 0.9587268459054104 0.0 9.545910995770324 1.4484259045262378 0.0 9.45773051450293 1.9425982227706111 0.0 9.341979799470852 2.439214579808408 0.0 9.197919290767123 2.9360918004390553 0.0 9.02503063165429 3.4309148106260423 0.0 8.823040551166022 3.921263797878355 0.0 8.591940831252243 4.404646080257974 0.0 8.332003333201012 4.878532032855646 0.0 8.043789182212798 5.340394173859059 0.0 7.728151398522213 5.787748292867494 0.0 7.386230511387529 6.218195330859215 0.0 7.019442985636391 6.629462611062184 0.0 6.629462611062183 7.019442985636393 0.0 6.218195330859213 7.386230511387527 0.0 5.787748292867493 7.728151398522211 0.0 5.340394173859057 8.043789182212798 0.0 4.878532032855644 8.33200333320101 0.0 4.404646080257973 8.59194083125224 0.0 3.921263797878353 8.82304055116602 0.0 3.4309148106260414 9.02503063165429 0.0 2.936091800439054 9.197919290767121 0.0 2.4392145798084073 9.341979799470852 0.0 1.942598222770611 9.457730514502927 0.0 1.448425904526237 9.54591099577032 0.0 0.9587268459054107 9.607455291335558 0.0 0.4753595130370714 9.64346346876663 0.0 0.0 9.655172413793103 0.0 9.482758620689655 0.0 0.0 9.471258763967224 0.46687095030426573 0.0 9.435893589704566 0.9416067236570993 0.0 9.375448299417279 1.422561156231126 0.0 9.288842469601093 1.9079089687925643 0.0 9.17515873162316 2.3956571765975436 0.0 9.033670732003422 2.8836615897169287 0.0 8.86386937037475 3.369648474722006 0.0 8.665486255609487 3.8512412300590992 0.0 8.438513316408452 4.3259916859676535 0.0 8.18321755939385 4.791415389411795 0.0 7.900150089673283 5.245029992183005 0.0 7.590148694977172 5.684395644780574 0.0 7.254333537969893 6.107156128522443 0.0 6.894095789464314 6.511079350150361 0.0 6.511079350150359 6.8940957894643144 0.0 6.107156128522441 7.254333537969893 0.0 5.684395644780572 7.590148694977171 0.0 5.245029992183001 7.900150089673283 0.0 4.791415389411795 8.183217559393851 0.0 4.325991685967652 8.43851331640845 0.0 3.8512412300590984 8.665486255609485 0.0 3.3696484747220063 8.86386937037475 0.0 2.8836615897169278 9.03367073200342 0.0 2.395657176597543 9.175158731623158 0.0 1.907908968792564 9.28884246960109 0.0 1.4225611562311251 9.375448299417277 0.0 0.9416067236570995 9.435893589704566 0.0 0.46687095030426656 9.471258763967224 0.0 0.0 9.482758620689655 0.0 9.310344827586208 0.0 0.0 9.29905405916782 0.458382387571461 0.0 9.264331888073574 0.9244866014087886 0.0 9.204985603064237 1.3966964079360142 0.0 9.119954424699253 1.8732197148145178 0.0 9.008337663775466 2.352099773386679 0.0 8.869422173239727 2.8312313789948034 0.0 8.702708109095212 3.3083821388179695 0.0 8.50793196005295 3.7812186622398434 0.0 8.285085801564662 4.247337291677333 0.0 8.034431785586689 4.704298745967943 0.0 7.756510997133768 5.1496658105069475 0.0 7.452145991432134 5.581042996693654 0.0 7.1224365645522605 5.996116926185671 0.0 6.768748593292235 6.392696089238534 0.0 6.392696089238532 6.768748593292235 0.0 5.996116926185669 7.122436564552259 0.0 5.581042996693654 7.452145991432133 0.0 5.1496658105069475 7.756510997133768 0.0 4.704298745967942 8.034431785586687 0.0 4.247337291677331 8.28508580156466 0.0 3.7812186622398425 8.50793196005295 0.0 3.3083821388179695 8.702708109095209 0.0 2.8312313789948016 8.869422173239723 0.0 2.352099773386678 9.008337663775464 0.0 1.8732197148145178 9.119954424699252 0.0 1.396696407936014 9.204985603064237 0.0 0.9244866014087888 9.264331888073574 0.0 0.4583823875714617 9.299054059167819 0.0 0.0 9.310344827586208 0.0 9.13793103448276 0.0 0.0 9.126849354368417 0.44989382483865614 0.0 9.09277018644258 0.9073664791604775 0.0 9.034522906711196 1.3708316596409031 0.0 8.951066379797417 1.8385304608364712 0.0 8.841516595927772 2.3085423701758145 0.0 8.705173614476026 2.778801168272677 0.0 8.54154684781567 3.2471158029139335 0.0 8.350377664496413 3.7111960944205866 0.0 8.13165828672087 4.1686828973870105 0.0 7.885646011779528 4.617182102524091 0.0 7.612871904594256 5.054301628830894 0.0 7.314143287887095 5.477690348606734 0.0 6.990539591134624 5.885077723848897 0.0 6.643401397120157 6.27431282832671 0.0 6.274312828326709 6.643401397120156 0.0 5.885077723848897 6.990539591134624 0.0 5.477690348606734 7.3141432878870924 0.0 5.054301628830893 7.612871904594254 0.0 4.617182102524092 7.885646011779527 0.0 4.16868289738701 8.13165828672087 0.0 3.7111960944205853 8.350377664496412 0.0 3.2471158029139326 8.541546847815667 0.0 2.7788011682726763 8.705173614476026 0.0 2.3085423701758137 8.841516595927768 0.0 1.838530460836471 8.951066379797412 0.0 1.3708316596409023 9.034522906711192 0.0 0.9073664791604777 9.09277018644258 0.0 0.4498938248386568 9.126849354368415 0.0 0.0 9.137931034482758 0.0 8.96551724137931 0.0 0.0 8.954644649569014 0.4414052621058512 0.0 8.921208484811592 0.8902463569121667 0.0 8.864060210358154 1.3449669113457918 0.0 8.782178334895578 1.8038412068584242 0.0 8.674695528080079 2.26498496696495 0.0 8.540925055712327 2.72637095755055 0.0 8.380385586536129 3.1858494670098962 0.0 8.192823368939878 3.6411735266013285 0.0 7.978230771877082 4.09002850309669 0.0 7.736860237972367 4.530065459080241 0.0 7.4692328120547415 4.958937447154839 0.0 7.176140584342056 5.374337700519815 0.0 6.858642617716992 5.774038521512127 0.0 6.518054200948079 6.1559295674148835 0.0 6.155929567414885 6.518054200948078 0.0 5.774038521512125 6.858642617716988 0.0 5.374337700519815 7.176140584342053 0.0 4.958937447154839 7.46923281205474 0.0 4.530065459080241 7.736860237972365 0.0 4.090028503096688 7.978230771877078 0.0 3.641173526601328 8.192823368939875 0.0 3.1858494670098967 8.380385586536127 0.0 2.7263709575505497 8.540925055712325 0.0 2.264984966964949 8.674695528080075 0.0 1.8038412068584244 8.782178334895574 0.0 1.344966911345791 8.86406021035815 0.0 0.8902463569121669 8.921208484811588 0.0 0.44140526210585196 8.95464464956901 0.0 0.0 8.965517241379311 0.0 8.793103448275863 0.0 0.0 8.782439944769608 0.4329166993730463 0.0 8.7496467831806 0.8731262346638559 0.0 8.693597514005113 1.31910216305068 0.0 8.613290289993738 1.7691519528803776 0.0 8.507874460232385 2.2214275637540855 0.0 8.37667649694863 2.673940746828424 0.0 8.219224325256587 3.124583131105859 0.0 8.035269073383342 3.571150958782072 0.0 7.8248032570332935 4.011374108806369 0.0 7.588074464165207 4.442948815636391 0.0 7.325593719515228 4.863573265478784 0.0 7.038137880797016 5.270985052432895 0.0 6.726745644299358 5.662999319175355 0.0 6.392707004776001 6.037546306503059 0.0 6.037546306503062 6.392707004776 0.0 5.662999319175354 6.726745644299355 0.0 5.270985052432895 7.038137880797013 0.0 4.863573265478783 7.325593719515226 0.0 4.442948815636391 7.588074464165205 0.0 4.011374108806368 7.82480325703329 0.0 3.5711509587820722 8.035269073383338 0.0 3.12458313110586 8.219224325256583 0.0 2.6739407468284235 8.376676496948626 0.0 2.221427563754085 8.507874460232381 0.0 1.7691519528803776 8.613290289993737 0.0 1.3191021630506796 8.693597514005111 0.0 0.8731262346638559 8.749646783180594 0.0 0.43291669937304716 8.782439944769607 0.0 0.0 8.793103448275861 0.0 8.620689655172415 0.0 0.0 8.610235239970205 0.4244281366402415 0.0 8.578085081549606 0.8560061124155448 0.0 8.523134817652073 1.293237414755569 0.0 8.444402245091903 1.7344626989023308 0.0 8.34105339238469 2.1778701605432214 0.0 8.21242793818493 2.6215105361062987 0.0 8.058063063977047 3.063316795201823 0.0 7.8777147778268075 3.5011283909628164 0.0 7
[...]
<PointData>
<DataArray Name="displ" NumberOfComponents="3" format="ascii" type="Float32">0.0 0.0 0.0 0.0008890296341321114 -0.001066919015265388 0.0 0.0015778512840162423 -0.0019190658483964392 0.0 0.0025209691730857 -0.0027926441898358774 0.0 0.0037853002792319116 -0.003634469201874051 0.0 0.005421525426817594 -0.0044278089744357796 0.0 0.007476973385341456 -0.005142582245850704 0.0 0.010001169883481945 -0.00573235023652257 0.0 0.013025752077892847 -0.006130482230431028 0.0 0.016524201440918946 -0.006250639763163677 0.0 0.020402275429387138 -0.006019543055816609 0.0 0.02456187696120613 -0.005386169389227552 0.0 0.02892380706775766 -0.004305710852121255 0.0 0.03341726134611421 -0.0027379094418083965 0.0 0.03796799104872189 -0.000651006853690653 0.0 0.042498926393991436 0.0019645881080690296 0.0 0.04694006877667045 0.0050902257048306655 0.0 0.05123682157335832 0.008692675812694062 0.0 0.05534889083781769 0.012745055707811656 0.0 0.05924279956667875 0.01723297449036952 0.0 0.06288436972224111 0.022152093470605642 0.0 0.06623463313617406 0.027493951148629257 0.0 0.06925355176493168 0.03322870961045104 0.0 0.07190863570793302 0.03930436574251264 0.0 0.07417808814961256 0.04565595610198358 0.0 0.07605491603243607 0.0522174022144547 0.0 0.0775432254640246 0.05893170672805648 0.0 0.07864988858264177 0.06576572648817137 0.0 0.07943342092206547 0.07273117890464229 0.0 0.07979648192735558 0.08017915931217724 0.0 0.0 0.0 0.0 0.000763097444490417 -0.0008953999158156651 0.0 0.001464875615519703 -0.0017766522601923357 0.0 0.002374411927016108 -0.0026059964988130162 0.0 0.0036041052162762827 -0.003404271763001933 0.0 0.005190263160519513 -0.004143064782792076 0.0 0.007178051928379392 -0.004791169534025732 0.0 0.009617088723874049 -0.005303402657394936 0.0 0.012539861154526783 -0.005615159753788115 0.0 0.015928595505147913 -0.005650744508322819 0.0 0.0196949283844674 -0.005343798527481918 0.0 0.023740403308640738 -0.004642912996441604 0.0 0.02798480992810441 -0.003501827803659215 0.0 0.03235814917095055 -0.001881323497222229 0.0 0.036788737239387664 0.00024636644384893876 0.0 0.041202314741148514 0.00288575154809323 0.0 0.04553051987321159 0.0060157660702762645 0.0 0.04971821977448759 0.009605314675368872 0.0 0.05372339458493695 0.013631850123392126 0.0 0.05751141241152881 0.018084474277649035 0.0 0.06104861716038848 0.022959983729540626 0.0 0.06429877816494317 0.02824835057082762 0.0 0.06722532552014 0.03391777889339575 0.0 0.0697976113171371 0.03991612568514573 0.0 0.07199529329792756 0.046179005994686294 0.0 0.07380817401203596 0.05264299975581699 0.0 0.07523561275351053 0.05925393061402342 0.0 0.07628517402628203 0.0659764448422256 0.0 0.07695099627143417 0.07283741419228826 0.0 0.07720489447728923 0.08014019927069618 0.0 0.0 0.0 0.0 0.0006545253668685958 -0.0007963620185164374 0.0 0.0013435581104439388 -0.0016301562208884937 0.0 0.002228623615308877 -0.0024177401242431295 0.0 0.003420934230692201 -0.0031646218642582885 0.0 0.0049577879560821 -0.003844549407818477 0.0 0.006879627674970026 -0.004424624539860445 0.0 0.009234351120268033 -0.004860173248562322 0.0 0.01205798935845136 -0.005091246302478792 0.0 0.015339506577814386 -0.005048265137563541 0.0 0.01899620902161704 -0.0046685769073318475 0.0 0.022929254560540416 -0.003900851733489865 0.0 0.027057695563672546 -0.0026988569900455862 0.0 0.03131222104097926 -0.001025294095199036 0.0 0.03562319469420662 0.0011434416499590933 0.0 0.03991891616385368 0.0038067711995072007 0.0 0.04413310398750673 0.006941268422253147 0.0 0.048211059802076885 0.010517999489822407 0.0 0.05210989799988612 0.014518634292698222 0.0 0.05579409130804652 0.018935671451575355 0.0 0.05923000619307743 0.02376706920614998 0.0 0.06238308435846529 0.02900140934867805 0.0 0.06521927144847624 0.034605368774253825 0.0 0.06770980448833447 0.04052630207146888 0.0 0.0698348677418062 0.046701197340693876 0.0 0.07158280974724517 0.05306889495066442 0.0 0.07294973325190314 0.059576966308340806 0.0 0.07393889524369085 0.06619127774720777 0.0 0.07453271408819513 0.07294825121389784 0.0 0.07475567586724305 0.0800630821506348 0.0 0.0 0.0 0.0 0.0005593733985882559 -0.0007237838161520951 0.0 0.0012219877303022238 -0.0014880411134048496 0.0 0.0020829981666359676 -0.0022272745469439194 0.0 0.003237684981839143 -0.0029177292225022753 0.0 0.004725705262600166 -0.003535386779720988 0.0 0.006582555362281958 -0.004046134106002536 0.0 0.008853894765822429 -0.0044063822491020865 0.0 0.011579689423474386 -0.004560786442565321 0.0 0.014756149266192788 -0.004443501315666557 0.0 0.018305642593273535 -0.003993327258533516 0.0 0.02212835080961867 -0.003159093034090313 0.0 0.02614243212307497 -0.0018954799125587701 0.0 0.030279197683447952 -0.00016791289083417432 0.0 0.03447091904574253 0.0020424691283466977 0.0 0.03864838598181504 0.00472962565879051 0.0 0.04274784082001766 0.007868019606931991 0.0 0.04671570911015224 0.011431265686279932 0.0 0.050508840645806505 0.015405420026382458 0.0 0.05409100677814406 0.0197863916760455 0.0 0.05742826447922145 0.024573275695196493 0.0 0.060486991426392175 0.029753296554921448 0.0 0.06323500186656042 0.03529167634875398 0.0 0.06564524532014215 0.04113530458047213 0.0 0.06769830440383678 0.047222758233347824 0.0 0.06938210257741213 0.05349482517088767 0.0 0.07069095331488251 0.05990049584064276 0.0 0.07162439415788084 0.0664077149974422 0.0 0.07217305286902484 0.07305348203537271 0.0 0.07239011004767558 0.07996661721152495 0.0 0.0 0.0 0.0 0.00047537344431649486 -0.0006544090042982864 0.0 0.0011042914479057475 -0.0013540435546521216 0.0 0.001937442362206746 -0.0020343908156810818 0.0 0.003055415559305008 -0.0026648512865672454 0.0 0.004494949121386264 -0.003217388642615593 0.0 0.006287408674538205 -0.0036576050105284206 0.0 0.008476275085049797 -0.003944135465874772 0.0 0.011104750825243051 -0.004024931201304363 0.0 0.014178058571757626 -0.003836617354497206 0.0 0.01762293441910319 -0.003317719108487106 0.0 0.02133764002490547 -0.002417058369864361 0.0 0.02523900297844348 -0.001090801779862832 0.0 0.029258910813175956 0.0006920885642620888 0.0 0.033331629411981575 0.0029448756244647685 0.0 0.0373904949680519 0.005655519176197855 0.0 0.041374713057728725 0.008796778226460304 0.0 0.04523236013058325 0.012345417557029382 0.0 0.0489204680718003 0.016292209776751568 0.0 0.05240225758371702 0.020636540963979606 0.0 0.05564323796250012 0.0253785735831107 0.0 0.05861017508773366 0.03050411638582393 0.0 0.061272277221673783 0.03597682650509864 0.0 0.06360393633123093 0.041743359358987875 0.0 0.06558640572816263 0.0477437989327283 0.0 0.06720782339161416 0.053920622695797844 0.0 0.06846211198642865 0.06022426747137198 0.0 0.06934834496089018 0.06662423668067172 0.0 0.06986822234874528 0.07314810219298713 0.0 0.07007784496969505 0.07986079566026617 0.0 0.0 0.0 0.0 0.00039965849190332607 -0.0005885511990296064 0.0 0.0009908249504734813 -0.0012224634526352136 0.0 0.0017941855273593532 -0.0018400801529355735 0.0 0.0028751484395092702 -0.002407443579256699 0.0 0.0042667906557699795 -0.0028929684239849653 0.0 0.005995662340682609 -0.003262110780445994 0.0 0.00810233769154961 -0.0034757662968214285 0.0 0.010633338450034464 -0.0034848973702079223 0.0 0.013604528458292088 -0.003227745742617619 0.0 0.01694751565546736 -0.0026412124255170196 0.0 0.020557001062960337 -0.0016734223352837686 0.0 0.0243474027879899 -0.00028244494788202035 0.0 0.028251078675476844 0.001557873356746063 0.0 0.032204740513278485 0.0038536700612658557 0.0 0.03614467052803059 0.0065865730615502814 0.0 0.0400134357635224 0.009728666780756928 0.0 0.04376108079960389 0.013260803643691973 0.0 0.04734502191444381 0.017178966740278023 0.0 0.05072797406986802 0.021486058997670584 0.0 0.05387475686855095 0.026183045729763453 0.0 0.0567522094098583 0.03125406360399695 0.0 0.05933064433384959 0.03666108202680702 0.0 0.06158574476363541 0.04235066332834445 0.0 0.06349966305479882 0.04826426562468191 0.0 0.06506113760854101 0.05434592370350442 0.0 0.06626450158139889 0.06054733231898812 0.0 0.06710994696883699 0.06683823400186531 0.0 0.06760781515419298 0.07323378936403749 0.0 0.06781217079830837 0.07975056760826757 0.0 0.0 0.0 0.0 0.00033122379408928766 -0.0005256994789786379 0.0 0.0008818803447982026 -0.001091755634184065 0.0 0.0016539918707785667 -0.00164462819988424 0.0 0.0026973931744432625 -0.002146185517936345 0.0 0.004041814620342551 -0.00256320323381442 0.0 0.005707991644374152 -0.0028609066078892713 0.0 0.007732608271354251 -0.0030022608262223888 0.0 0.010165639339897777 -0.002941241587594752 0.0 0.013035248316397028 -0.00261698829031892 0.0 0.016279114174281784 -0.00196354266052274 0.0 0.01978642606985393 -0.0009273404057005557 0.0 0.023467673938737593 0.0005310608391362389 0.0 0.027255547926702033 0.0024312041691786175 0.0 0.031089935159419355 0.004770357213575272 0.0 0.034910596599631354 0.007523734326156984 0.0 0.038663830516471674 0.010664118460810553 0.0 0.04230184974826615 0.01417753251828894 0.0 0.04578256490712112 0.01806567017445887 0.0 0.04906818649603944 0.022334942813424595 0.0 0.05212272473116968 0.026986771903991496 0.0 0.054912884686361005 0.03200325411235061 0.0 0.05740986357419385 0.03734457329234212 0.0 0.059590531501283434 0.0429572986308708 0.0 0.061438128308981696 0.04878413360173402 0.0 0.06294228209461276 0.05477056951906411 0.0 0.06409830252757646 0.060869301591238836 0.0 0.06490841525720421 0.06704892476772514 0.0 0.06538812386212234 0.07331128722388416 0.0 0.0655896402013578 0.0796376612421787 0.0 0.0 0.0 0.0 0.00026892691607527527 -0.0004630509549972858 0.0 0.0007783890936818322 -0.0009617824318916085 0.0 0.0015176692659177352 -0.001448138795335205 0.0 0.002523270376544441 -0.0018824556521195204 0.0 0.0038211844167410475 -0.0022301456900305655 0.0 0.005425731550705125 -0.0024560570129820566 0.0 0.007368505359291106 -0.0025253427688138007 0.0 0.009702328782717793 -0.0023950628040571888 0.0 0.012469638855760579 -0.002004658963737847 0.0 0.015617160088693176 -0.0012841395315763046 0.0 0.01902602995246346 -0.00017649217551123856 0.0 0.022600023030018245 0.001353667175969993 0.0 0.026271948786646862 0.0033164265397562253 0.0 0.02998645156348702 0.005698259676642645 0.0 0.033687500805549525 0.008468808430130858 0.0 0.037325413262311376 0.011603768300479465 0.0 0.040854480989280816 0.015095679047074031 0.0 0.04423308982643448 0.018952268418129425 0.0 0.0474228740795058 0.023183254088912357 0.0 0.0503868995536003 0.027790024371046114 0.0 0.05309174616534226 0.032751990230133005 0.0 0.05550937325034491 0.03802758557189592 0.0 0.05761780698003667 0.04356340566163673 0.0 0.05940143010040949 0.04930335383960921 0.0 0.060850912175666405 0.055194268153928354 0.0 0.061962744821540294 0.06118953187684381 0.0 0.06274105235574093 0.06725589224533904 0.0 0.06320471772126042 0.07338199872454501 0.0 0.06340241132450415 0.07952401800700275 0.0 0.0 0.0 0.0 0.00021232783514708043 -0.00040040535444635253 0.0 0.0006805225257501677 -0.0008323964424437434 0.0 0.0013856573504992704 -0.0012508842483116474 0.0 0.002353265454399201 -0.0016169114126596443 0.0 0.003605352037915404 -0.0018946940921072397 0.0 0.005149639135476142 -0.0020486301893690743 0.0 0.007010989559418248 -0.002045892634907856 0.0 0.00924388617677368 -0.0018465876414364415 0.0 0.011907574152805174 -0.001390527885592818 0.0 0.014961141191229193 -0.0006021635151062461 0.0 0.018275597817830065 0.0005810364470453194 0.0 0.02174439724848446 0.002188235455005232 0.0 0.025299960629242314 0.004216323270514413 0.0 0.028893786635925477 0.006638909883543218 0.0 0.03247497570968321 0.009422353457676473 0.0 0.035997870367806925 0.012547763854091112 0.0 0.03941881685212026 0.01601515530703916 0.0 0.042696534236224895 0.019838700783354847 0.0 0.045791940178110155 0.024031143163724063 0.0 0.04866710274089461 0.028592998554996835 0.0 0.051288505764259446 0.0335004868739474 0.0 0.05362881571399344 0.03871028485065346 0.0 0.05566718552094973 0.04416907140831336 0.0 0.05738916150510964 0.049821922566511856 0.0 0.05878653899112802 0.05561691950415645 0.0 0.05985707315626017 0.06150786027130905 0.0 0.06060651009610335 0.06745911505027279 0.0 0.061055619394474514 0.07344683052887815 0.0 0.0612483873150025 0.07941045020010609 0.0 0.0 0.0 0.0 0.00016070915567446042 -0.00033815198018850005 0.0 0.0005884073800581047 -0.0007032805128483585 0.0 0.0012587774822417398 -0.001053497643978087 0.0 0.002188213589378255 -0.0013507276024993455 0.0 0.003395057565827948 -0.0015584006758365449 0.0 0.004881146444254051 -0.0016405899377183878 0.0 0.006661964227163265 -0.001565522304719237 0.0 0.008791271645043421 -0.0012960254834483357 0.0 0.01134892803336281 -0.0007739346881788241 0.0 0.01430998410970547 8.425874321444557e-05 0.0 0.017534568342498287 0.0013491967795723821 0.0 0.020900602714714785 0.0030405211510648542 0.0 0.024338915648082514 0.00513633420384142 0.0 0.027810949463898192 0.007595011967460602 0.0 0.03127226753941291 0.010385167504679084 0.0 0.03468058695128125 0.01349626669234609 0.0 0.03799453023707063 0.016935722900632992 0.0 0.04117274777969841 0.020724835120435034 0.0 0.04417515507198368 0.024878958195331216 0.0 0.04696297360676953 0.029396086789159375 0.0 0.049502601870797136 0.034249174601962626 0.0 0.05176749283482369 0.03939298742245649 0.0 0.053737877858252875 0.04477446448593924 0.0 0.055400444271098345 0.05033984593427396 0.0 0.056748075622581225 0.05603837042551841 0.0 0.05777968266361673 0.061824090308082065 0.0 0.05850233875931776 0.06765867157789968 0.0 0.05893738467251778 0.07350755902210299 0.0 0.05912490138067974 0.07929833468866554 0.0 0.0 0.0 0.0 0.00011381160610405751 -0.0002762418764554789 0.0 0.0005021474396998569 -0.0005746521270510254 0.0 0.0011374805278094023 -0.0008564702039787141 0.0 0.0020284769550085054 -0.0010846317129518867 0.0 0.003190934797745983 -0.0012224100720116785 0.0 0.004621056394103656 -0.0012329503372698059 0.0 0.006323033446829558 -0.0010851357426525014 0.0 0.008346873801976813 -0.0007449825852829993 0.0 0.010793389551478122 -0.0001567544521693665 0.0 0.01366427730012626 0.0007746937622047328 0.0 0.01680412942096861 0.0021333930506077484 0.0 0.020068743523814114 0.003917732686363789 0.0 0.0233878471034921 0.006079775103987338 0.0 0.026737353701640966 0.008567030264162445 0.0 0.030078691496912512 0.01135778690225723 0.0 0.03337317189009244 0.014448691613464104 0.0 0.036581387511123636 0.017856959998447473 0.0 0.03966150562660482 0.02161086471178579 0.0 0.042572258316504984 0.025726991620878034 0.0 0.04527410866150331 0.030199766925371237 0.0 0.04773351356015024 0.034998426856592726 0.0 0.04992476911147088 0.04007597201594205 0.0 0.0518291485544148 0.045379750103293065 0.0 0.053434427061746656 0.05085718429927793 0.0 0.05473450450537402 0.0564586199398901 0.0 0.05572930624290453 0.0621382370915155 0.0 0.056426885306432945 0.06785492066514058 0.0 0.05684823480957771 0.07356518423006153 0.0 0.0570300474403142 0.07918850819781813 0.0 0.0 0.0 0.0 7.134425541885158e-05 -0.00021459348678046122 0.0 0.0004218682584383384 -0.0004468109163037853 0.0 0.001022295547877543 -0.0006603995983175732 0.0 0.0018744798459997664 -0.0008194973844758246 0.0 0.0029937404012055895 -0.0008881076925468705 0.0 0.004370325319449816 -0.0008269395912788121 0.0 0.0059961625435492934 -0.0006058547810184733 0.0 0.007913679857172683 -0.00019550170559950281 0.0 0.010240623768650817 0.00045864333741134225 0.0 0.013024749110846895 0.0014687445776102688 0.0 0.016085705448874325 0.002940554484248398 0.0 0.019248909912316023 0.004828805675299259 0.0 0.022445560727202787 0.00705051986898547 0.0 0.025672295949192226 0.009555438518225535 0.0 0.02889341270365483 0.012340815076390295 0.0 0.03207515859043146 0.01540426863979159 0.0 0.035179107149437616 0.018778341271061854 0.0 0.03816252644480027 0.022497045198671572 0.0 0.04098292467741092 0.026575607792049146 0.0 0.043600006134633676 0.03100463351891617 0.0 0.04598059894417371 0.03574870207218735 0.0 0.04809986294573443 0.04075958063696362 0.0 0.04994009223270991 0.0459851323466247 0.0 0.051490060113808536 0.051374016424193536 0.0 0.052744574057856146 0.05687767725084664 0.0 0.05370440182814881 0.06245033415417085 0.0 0.054378163157158536 0.06804832180824519 0.0 0.054786079624875375 0.07362088996373745 0.0 0.05496153057776508 0.07908196957774831 0.0 0.0 0.0 0.0 3.308632420493102e-05 -0.00015345336999306246 0.0 0.0003476448882615993 -0.00032013703785768613 0.0 0.0009134907716186371 -0.00046605625781366073 0.0 0.0017271742767506352 -0.0005566376753218232 0.0 0.0028029935277010367 -0.0005570695220106178 0.0 0.004130397786086256 -0.00042666928261239894 0.0 0.0056841917991050876 -0.000132825181385604 0.0 0.007492206375012266 0.0003513861088871303 0.0 0.009694764755437034 0.0010763144372078022 0.0 0.01238503276384091 0.0021868664702167063 0.0 0.015370099200762374 0.003793179806511074 0.0 0.018436946399056714 0.0057819958875635884 0.0 0.021511738868058454 0.00804651476671962 0.0 0.024614577117941634 0.010563339607368872 0.0 0.027715806163110274 0.01333174278542299 0.0 0.030786158560532774 0.016361685831948906 0.0 0.033787419046689096 0.019699637798431757 0.0 0.03667547892010913 0.023383558623546324 0.0 0.03940657171624276 0.027425802231246944 0.0 0.04193990537777875 0.03181145462508575 0.0 0.04424290550429674 0.03650067451238367 0.0 0.04629166859590372 0.04144428133263492 0.0 0.04806944562142236 0.04659091063568496 0.0 0.049565907487830206 0.05189052965440018 0.0 0.0507766463727469 0.05729566707159174 0.0 0.05170307917159078 0.06276061418718318 0.0 0.05235406543194697 0.06823949311091854 0.0 0.052748712623067795 0.07367587391278876 0.0 0.05291730265746203 0.0789798791566323 0.0 0.0 0.0 0.0 -1.113023552019785e-06 -9.29919336932574e-05 0.0 0.00027952545347371727 -0.00019490718609886472 0.0 0.0008112596075982514 -0.0002739844006626975 0.0 0.0015871725126027848 -0.0002969728144170204 0.0 0.0026184558228072676 -0.00023045091756883476 0.0 0.00390201909303749 -3.476779455314963e-05 0.0 0.005389338300823135 0.0003304072295466963 0.0 0.0070842921924076825 0.0008943097079186262 0.0 0.009158211974619763 0.0016996203192123352 0.0 0.011743002882411816 0.0029430453234427084 0.0 0.014653220404422095 0.004704338568409148 0.0 0.01763055736325389 0.006781691779868246 0.0 0.020586002494056885 0.009067295042740148 0.0 0.02356337193062471 0.011592154576358099 0.0 0.026545456127471515 0.014328823073586643 0.0 0.02950593219406934 0.017319963365246733 0.0 0.03240614705032802 0.020620678767958353 0.0 0.035200120661799957 0.02427062834011873 0.0 0.03784277414401352 0.028278287496045065 0.0 0.04029324413717543 0.03262080620528502 0.0 0.042519736206254585 0.03725482938057745 0.0 0.0444993786137863 0.04213041416935824 0.0 0.04621628881279253 0.047197306127214046 0.0 0.04766092737934743 0.05240686391814283 0.0 0.04882953853270183 0.057712688428892496 0.0 0.04972398322690453 0.0630692524930431 0.0 0.05035309063209513 0.06842887837102579 0.0 0.050734570872943606 0.07373097341844753 0.0 0.05089590240115653 0.07888305678456811 0.0 0.0 0.0 0.0 -3.144080069957422e-05 -3.343363816646832e-05 0.0 0.00021752825320503597 -7.168536880700372e-05 0.0 0.0007159835773679648 -8.508469081168188e-05 0.0 0.001454695767149446 -4.1926411148815905e-05 0.0 0.0024410846360132556 8.928399768674605e-05 0.0 0.0036828450162550218 0.0003480614509599025 0.0 0.005118000385009787 0.0007792227672939657 0.0 0.006712202930125758 0.0014226126420440167 0.0 0.008628060356887558 0.0023403945802516176 0.0 0.011126124767032381 0.0037538876273737667 0.0 0.013959823248062869 0.005658663501863069 0.0 0.016834357172396498 0.007816496631999832 0.0 0.019665685715003538 0.010125070133737294 0.0 0.022517604127873275 0.012634164548504504 0.0 0.02538199750307058 0.0153295782507286 0.0 0.02823452973850292 0.018276798191349166 0.0 0.03103518748284491 0.021541052043800593 0.0 0.03373594122992483 0.025159858162227502 0.0 0.036290652152738044 0.02913435099293271 0.0 0.03865877081980251 0.03343407539240323 0.0 0.04080962645897918 0.0380120833682546 0.0 0.042721316700145284 0.042818663931391214 0.0 0.04437874397527679 0.04780480925513565 0.0 0.04577304082889