<?xml version="1.0" ?>
<VTKFile byte_order="LittleEndian" type="UnstructuredGrid" version="0.1">
<UnstructuredGrid>
<Piece NumberOfCells="493" NumberOfPoints="510">
<Points>
<DataArray NumberOfComponents="3" format="ascii" type="Float32">10.0 0.0 0.0 9.987872878365437 0.4923366385026801 0.0 9.950578694597542 0.9929670904020319 0.0 9.886836388476402 1.5001554011164597 0.0 9.795506604306603 2.011976730726704 0.0 9.675621935166237 2.5263293862301364 0.0 9.526416408294516 3.0409522218833054 0.0 9.34735315421337 3.5534474824341142 0.0 9.13814914227909 4.061308933516867 0.0 8.898795860939817 4.561954868838615 0.0 8.629574880815328 5.0527653197433455 0.0 8.331067367291825 5.531122537211165 0.0 8.004156805612288 5.9944535890413295 0.0 7.650024458222793 6.440273735532756 0.0 7.2701373779805465 6.866229132885833 0.0 6.86622913288583 7.270137377980549 0.0 6.440273735532754 7.650024458222797 0.0 5.994453589041329 8.004156805612288 0.0 5.531122537211164 8.331067367291826 0.0 5.0527653197433455 8.629574880815332 0.0 4.561954868838614 8.898795860939819 0.0 4.061308933516866 9.138149142279092 0.0 3.5534474824341147 9.347353154213371 0.0 3.040952221883305 9.526416408294516 0.0 2.5263293862301355 9.675621935166237 0.0 2.0119767307267034 9.795506604306603 0.0 1.5001554011164588 9.886836388476402 0.0 0.992967090402032 9.95057869459754 0.0 0.492336638502681 9.987872878365437 0.0 0.0 10.0 0.0 9.6875 0.0 0.0 9.675751850916516 0.4769511185494715 0.0 9.63962311039137 0.9619368688269686 0.0 9.577872751336518 1.4532755448315708 0.0 9.489397022922024 1.9491024578914946 0.0 9.373258749692296 2.4473815929104457 0.0 9.228715895535313 2.945922464949453 0.0 9.055248368144206 3.442402248608049 0.0 8.852581981582874 3.934393029344466 0.0 8.620708490285452 4.419393779187409 0.0 8.359900665789853 4.894866403501368 0.0 8.070721512063956 5.358274957923318 0.0 7.754026905436907 5.807126914383792 0.0 7.410961193903335 6.2390151812973595 0.0 7.042945584918657 6.651659472483153 0.0 6.651659472483152 7.042945584918657 0.0 6.239015181297358 7.410961193903335 0.0 5.807126914383789 7.7540269054369055 0.0 5.358274957923317 8.070721512063958 0.0 4.894866403501366 8.359900665789853 0.0 4.419393779187409 8.620708490285452 0.0 3.9343930293444638 8.852581981582873 0.0 3.442402248608049 9.055248368144206 0.0 2.945922464949452 9.228715895535315 0.0 2.4473815929104443 9.373258749692294 0.0 1.9491024578914944 9.489397022922022 0.0 1.4532755448315697 9.577872751336514 0.0 0.9619368688269688 9.63962311039137 0.0 0.47695111854947236 9.675751850916518 0.0 0.0 9.6875 0.0 9.375 0.0 0.0 9.363630823467595 0.46156559859626267 0.0 9.328667526185196 0.9309066472519051 0.0 9.268909114196628 1.4063956885466813 0.0 9.183287441537443 1.886228185056285 0.0 9.07089556421835 2.368433799590753 0.0 8.93101538277611 2.8508927080156 0.0 8.763143582075038 3.331357014781983 0.0 8.567014820886653 3.8074771251720634 0.0 8.342621119631083 4.276832689536202 0.0 8.090226450764373 4.736967487259387 0.0 7.8103756568360865 5.185427378635469 0.0 7.503897005261523 5.619800239726249 0.0 7.171897929583872 6.0377566270619605 0.0 6.815753791856764 6.437089812080469 0.0 6.437089812080468 6.815753791856765 0.0 6.037756627061959 7.1718979295838725 0.0 5.619800239726247 7.50389700526152 0.0 5.1854273786354685 7.810375656836087 0.0 4.7369674872593865 8.090226450764373 0.0 4.276832689536201 8.342621119631083 0.0 3.807477125172062 8.567014820886648 0.0 3.3313570147819833 8.763143582075037 0.0 2.850892708015599 8.93101538277611 0.0 2.3684337995907527 9.070895564218349 0.0 1.886228185056285 9.18328744153744 0.0 1.4063956885466804 9.268909114196626 0.0 0.9309066472519052 9.328667526185196 0.0 0.46156559859626356 9.363630823467599 0.0 0.0 9.375 0.0 9.0625 0.0 0.0 9.051509796018678 0.446180078643054 0.0 9.017711941979023 0.8998764256768416 0.0 8.959945477056742 1.359515832261792 0.0 8.87717786015286 1.8233539122210753 0.0 8.768532378744407 2.2894860062710616 0.0 8.633314870016907 2.7558629510817463 0.0 8.47103879600587 3.2203117809559165 0.0 8.28144766019043 3.680561220999661 0.0 8.064533748976714 4.134271599884995 0.0 7.820552235738895 4.579068571017407 0.0 7.5500298016082175 5.01257979934762 0.0 7.2537671050861405 5.4324735650687055 0.0 6.93283466526441 5.8364980728265605 0.0 6.588561998794872 6.222520151677784 0.0 6.222520151677784 6.588561998794871 0.0 5.83649807282656 6.932834665264408 0.0 5.4324735650687055 7.253767105086137 0.0 5.012579799347619 7.550029801608217 0.0 4.579068571017407 7.8205522357388935 0.0 4.134271599884995 8.064533748976713 0.0 3.6805612209996603 8.281447660190427 0.0 3.220311780955917 8.471038796005868 0.0 2.755862951081746 8.633314870016907 0.0 2.2894860062710607 8.768532378744405 0.0 1.8233539122210756 8.877177860152859 0.0 1.3595158322617913 8.959945477056738 0.0 0.8998764256768417 9.017711941979021 0.0 0.44618007864305476 9.051509796018678 0.0 0.0 9.0625 0.0 8.75 0.0 0.0 8.739388768569757 0.43079455868984506 0.0 8.706756357772852 0.8688462041017779 0.0 8.650981839916854 1.3126359759769024 0.0 8.57106827876828 1.7604796393858657 0.0 8.466169193270462 2.210538212951369 0.0 8.335614357257704 2.6608331941478927 0.0 8.178934009936702 3.10926654712985 0.0 7.995880499494209 3.5536453168272586 0.0 7.786446378322344 3.991710510233788 0.0 7.550878020713417 4.421169654775428 0.0 7.2896839463803484 4.83973222005977 0.0 7.003637204910755 5.245146890411165 0.0 6.693771400944948 5.6352395185911615 0.0 6.36137020573298 6.007950491275103 0.0 6.007950491275103 6.36137020573298 0.0 5.6352395185911615 6.693771400944946 0.0 5.2451468904111636 7.003637204910752 0.0 4.83973222005977 7.289683946380348 0.0 4.421169654775428 7.550878020713415 0.0 3.991710510233788 7.786446378322344 0.0 3.553645316827258 7.995880499494206 0.0 3.1092665471298506 8.1789340099367 0.0 2.6608331941478927 8.3356143572577 0.0 2.210538212951369 8.466169193270458 0.0 1.7604796393858657 8.571068278768276 0.0 1.3126359759769015 8.650981839916849 0.0 0.8688462041017782 8.706756357772848 0.0 0.430794558689846 8.739388768569757 0.0 0.0 8.75 0.0 8.4375 0.0 0.0 8.427267741120836 0.4154090387366365 0.0 8.395800773566677 0.8378159825267145 0.0 8.342018202776966 1.2657561196920133 0.0 8.2649586973837 1.6976053665506565 0.0 8.163806007796516 2.131590419631678 0.0 8.037913844498501 2.56580343721404 0.0 7.886829223867534 2.998221313303784 0.0 7.710313338797986 3.4267294126548573 0.0 7.508359007667975 3.849149420582582 0.0 7.281203805687937 4.263270738533448 0.0 7.02933809115248 4.666884640771922 0.0 6.753507304735372 5.057820215753623 0.0 6.454708136625486 5.433980964355763 0.0 6.134178412671088 5.7933808308724215 0.0 5.793380830872423 6.134178412671089 0.0 5.433980964355762 6.454708136625484 0.0 5.0578202157536225 6.75350730473537 0.0 4.666884640771921 7.029338091152477 0.0 4.263270738533448 7.281203805687935 0.0 3.849149420582581 7.508359007667973 0.0 3.426729412654856 7.710313338797984 0.0 2.9982213133037847 7.886829223867532 0.0 2.565803437214039 8.037913844498497 0.0 2.131590419631677 8.163806007796513 0.0 1.6976053665506563 8.264958697383696 0.0 1.2657561196920124 8.342018202776963 0.0 0.8378159825267147 8.395800773566675 0.0 0.4154090387366372 8.427267741120838 0.0 0.0 8.4375 0.0 8.125 0.0 0.0 8.115146713671917 0.4000235187834277 0.0 8.084845189360502 0.8067857609516511 0.0 8.033054565637078 1.2188762634071242 0.0 7.958849115999117 1.6347310937154471 0.0 7.86144282232257 2.052642626311987 0.0 7.7402133317392945 2.4707736802801867 0.0 7.594724437798366 2.887176079477719 0.0 7.424746178101764 3.299813508482455 0.0 7.230271637013605 3.7065883309313747 0.0 7.011529590662459 4.1053718222914695 0.0 6.7689922359246095 4.494037061484073 0.0 6.503377404559987 4.8704935410960815 0.0 6.215644872306024 5.232722410120365 0.0 5.906986619609197 5.57881117046974 0.0 5.578811170469741 5.906986619609198 0.0 5.232722410120365 6.215644872306023 0.0 4.8704935410960815 6.503377404559985 0.0 4.494037061484073 6.768992235924609 0.0 4.105371822291469 7.011529590662456 0.0 3.7065883309313743 7.230271637013604 0.0 3.299813508482454 7.424746178101762 0.0 2.8871760794777184 7.594724437798364 0.0 2.4707736802801854 7.7402133317392945 0.0 2.052642626311985 7.861442822322569 0.0 1.634731093715447 7.958849115999115 0.0 1.218876263407123 8.033054565637077 0.0 0.8067857609516512 8.084845189360504 0.0 0.40002351878342834 8.115146713671919 0.0 0.0 8.125 0.0 7.8125 0.0 0.0 7.803025686222997 0.3846379988302189 0.0 7.77388960515433 0.7757555393765876 0.0 7.724090928497191 1.1719964071222344 0.0 7.652739534614534 1.5718568208802375 0.0 7.559079636848625 1.9736948329922945 0.0 7.4425128189800915 2.3757439233463336 0.0 7.302619651729197 2.7761308456516525 0.0 7.139179017405542 3.172897604310053 0.0 6.952184266359235 3.5640272412801686 0.0 6.74185537563698 3.94747290604949 0.0 6.508646380696741 4.321189482196224 0.0 6.253247504384603 4.68316686643854 0.0 5.976581607986561 5.031463855884966 0.0 5.679794826547305 5.364241510067057 0.0 5.364241510067059 5.6797948265473055 0.0 5.031463855884967 5.97658160798656 0.0 4.68316686643854 6.2532475043846 0.0 4.321189482196223 6.508646380696739 0.0 3.9474729060494886 6.741855375636977 0.0 3.5640272412801677 6.952184266359233 0.0 3.1728976043100516 7.13917901740554 0.0 2.776130845651652 7.302619651729197 0.0 2.3757439233463318 7.4425128189800915 0.0 1.9736948329922934 7.559079636848624 0.0 1.571856820880237 7.6527395346145335 0.0 1.1719964071222337 7.724090928497189 0.0 0.7757555393765876 7.773889605154331 0.0 0.38463799883021954 7.803025686222998 0.0 0.0 7.8125 0.0 7.5 0.0 0.0 7.4909046587740775 0.3692524788770101 0.0 7.462934020948158 0.744725317801524 0.0 7.415127291357303 1.125116550837345 0.0 7.346629953229955 1.508982548045028 0.0 7.256716451374679 1.8947470396726025 0.0 7.144812306220888 2.2807141664124795 0.0 7.010514865660029 2.6650856118255857 0.0 6.85361185670932 3.04598170013765 0.0 6.674096895704865 3.4214661516289606 0.0 6.4721811606115 3.7895739898075087 0.0 6.248300525468871 4.148341902908374 0.0 6.003117604209219 4.495840191780998
[...]
<PointData>
<DataArray Name="displ" NumberOfComponents="3" format="ascii" type="Float32">0.0 0.0 0.0 0.0008890296341321114 -0.001066919015265388 0.0 0.0015778512840162423 -0.0019190658483964392 0.0 0.0025209691730857 -0.0027926441898358774 0.0 0.0037853002792319116 -0.003634469201874051 0.0 0.005421525426817594 -0.0044278089744357796 0.0 0.007476973385341456 -0.005142582245850704 0.0 0.010001169883481945 -0.00573235023652257 0.0 0.013025752077892847 -0.006130482230431028 0.0 0.016524201440918946 -0.006250639763163677 0.0 0.020402275429387138 -0.006019543055816609 0.0 0.02456187696120613 -0.005386169389227552 0.0 0.02892380706775766 -0.004305710852121255 0.0 0.03341726134611421 -0.0027379094418083965 0.0 0.03796799104872189 -0.000651006853690653 0.0 0.042498926393991436 0.0019645881080690296 0.0 0.04694006877667045 0.0050902257048306655 0.0 0.05123682157335832 0.008692675812694062 0.0 0.05534889083781769 0.012745055707811656 0.0 0.05924279956667875 0.01723297449036952 0.0 0.06288436972224111 0.022152093470605642 0.0 0.06623463313617406 0.027493951148629257 0.0 0.06925355176493168 0.03322870961045104 0.0 0.07190863570793302 0.03930436574251264 0.0 0.07417808814961256 0.04565595610198358 0.0 0.07605491603243607 0.0522174022144547 0.0 0.0775432254640246 0.05893170672805648 0.0 0.07864988858264177 0.06576572648817137 0.0 0.07943342092206547 0.07273117890464229 0.0 0.07979648192735558 0.08017915931217724 0.0 0.0 0.0 0.0 0.0006736384534305285 -0.0008103237160614215 0.0 0.001366780061461527 -0.0016577672727341162 0.0 0.0022559123777503563 -0.0024531726459244415 0.0 0.0034553916484254027 -0.003210232388481129 0.0 0.005001437594686759 -0.003901508035029015 0.0 0.006935527390565947 -0.004494441149876216 0.0 0.009305993474828382 -0.004944292822543403 0.0 0.012148043050041607 -0.005190093898650537 0.0 0.015449479922053446 -0.005161420910833667 0.0 0.019126571134981785 -0.004795152061448338 0.0 0.02308056006893154 -0.004039914894578581 0.0 0.027230625005703717 -0.002849370691525835 0.0 0.03150733385300661 -0.0011857950789969155 0.0 0.035840698325501866 0.0009752181051318712 0.0 0.040158553771220136 0.0036340517098321216 0.0 0.044394194880484315 0.006767714094271998 0.0 0.04849277346080863 0.01034685696331334 0.0 0.052411505850935056 0.014352362807094014 0.0 0.05611501419406463 0.01877609849112416 0.0 0.059569695445619256 0.023615803453383693 0.0 0.06274075235027847 0.028860309592622604 0.0 0.06559372538300778 0.034476554449812506 0.0 0.06809949914631301 0.04041200649297322 0.0 0.0702382140010521 0.04660334733478864 0.0 0.07199837209721285 0.05298902213965727 0.0 0.07337657372436932 0.05951634158759841 0.0 0.07437715350851537 0.06615073296989982 0.0 0.07498136569866895 0.07292732128706926 0.0 0.07520522485067371 0.0800800749090183 0.0 0.0 0.0 0.0 0.0005057059456487614 -0.0006800339132960337 0.0 0.0011479562643393424 -0.0014036185043860684 0.0 0.0019919092368641794 -0.0021069573987425247 0.0 0.0031236020562015287 -0.0027603111461825393 0.0 0.004581265416541799 -0.0033375560135633425 0.0 0.00639779132143782 -0.003804330391043583 0.0 0.00861750892861791 -0.004118355471130565 0.0 0.01128245087610212 -0.004226450027204867 0.0 0.014394259728194242 -0.004064440852116994 0.0 0.017878056752630538 -0.0035711404331463 0.0 0.021632967970981316 -0.0026954181502522215 0.0 0.02557640233584135 -0.0013928241489081486 0.0 0.02964003953143752 0.00036912716760155386 0.0 0.033757369682542615 0.0026059309149059308 0.0 0.037860750785424994 0.0053078498287292605 0.0 0.041888227704531364 0.008448203921531613 0.0 0.04578720624417175 0.012002489869328122 0.0 0.04951460954093388 0.01595966493905813 0.0 0.05303385227207717 0.020317804820297405 0.0 0.056310672348594604 0.025076689323162496 0.0 0.05931174294793162 0.030222674562857748 0.0 0.062005796199964824 0.03572001805478393 0.0 0.06436670902642631 0.0415154403048279 0.0 0.0663754534523063 0.04754847224707261 0.0 0.06802002439384966 0.05376098186333463 0.0 0.06929435622111224 0.06010287087388763 0.0 0.07019739625856783 0.06654315799548544 0.0 0.07072661433140535 0.07311378150180269 0.0 0.07093902442778027 0.07990133454384622 0.0 0.0 0.0 0.0 0.0003688986734237 -0.0005608705710089584 0.0 0.0009425431734781967 -0.001165180629577776 0.0 0.00173242002132525 -0.0017547034319967784 0.0 0.0027969967158310003 -0.002293525033590062 0.0 0.0041678944797784445 -0.002749216972445911 0.0 0.0058692159048049294 -0.0030871488890403488 0.0 0.007939968708271251 -0.0032691247267589794 0.0 0.01042821815735867 -0.0032474203601451524 0.0 0.013354984075967694 -0.0029607504696139075 0.0 0.016654264551250852 -0.0023449130417616325 0.0 0.020218628501887916 -0.0013474671690535643 0.0 0.023961046909533296 7.256678970462614e-05 0.0 0.02781404498134355 0.0019387373245477548 0.0 0.03171557712237715 0.004253527974964002 0.0 0.035603368820602915 0.006995709237798854 0.0 0.03942157953440953 0.01013744611699003 0.0 0.04312119711260247 0.01366170230859436 0.0 0.04665984918105574 0.01756690952397437 0.0 0.05000003471193294 0.021857519593101733 0.0 0.05310623495141813 0.02653474956667024 0.0 0.0559452414537435 0.03158190740436919 0.0 0.05848777441438463 0.036960184473785296 0.0 0.060710044195485674 0.04261613918940877 0.0 0.06259466461007179 0.048491784803442906 0.0 0.0641307368754683 0.05453180633614654 0.0 0.06531297576844373 0.060688371583606904 0.0 0.06614242042425232 0.06693084585982743 0.0 0.0666319856795853 0.07326860880191341 0.0 0.06683502785328317 0.07970137118110132 0.0 0.0 0.0 0.0 0.00025428883362120524 -0.00044736439637201356 0.0 0.0007533870364323523 -0.0009294011558888778 0.0 0.0014842096583691819 -0.00139885642359482 0.0 0.002480329709983389 -0.0018161645958454928 0.0 0.003766729219586467 -0.0021464080135079164 0.0 0.005356038690040562 -0.0023543163952386374 0.0 0.007278387204210959 -0.002405614585392946 0.0 0.009587200389306232 -0.0022581459150387605 0.0 0.012328798424099296 -0.0018513373194145814 0.0 0.015452667550878417 -0.0011140064813242362 0.0 0.018837523675472055 1.2011123326218389e-05 0.0 0.0223850016218219 0.0015608199210806095 0.0 0.026027905904161236 0.0035396772839807315 0.0 0.029712334421035796 0.005932054277961178 0.0 0.0333834267101137 0.008706349523280654 0.0 0.036992547370983814 0.011839349450527621 0.0 0.04049448855505699 0.015325438688247029 0.0 0.04384774933752448 0.019173900507608914 0.0 0.04701380730216112 0.02339524368454483 0.0 0.04995547074644908 0.027990768927950913 0.0 0.05263929401484205 0.03293910932029724 0.0 0.05503740979223627 0.038198269517763825 0.0 0.05712812990341421 0.04371485269073936 0.0 0.05889612881360626 0.04943305670726065 0.0 0.060332357412000284 0.055300038963468814 0.0 0.06143362767279906 0.061269304835985805 0.0 0.06220449644281069 0.06730704399856835 0.0 0.06266444693741494 0.07339864434980836 0.0 0.06286096282838237 0.07949553097390161 0.0 0.0 0.0 0.0 0.00015764727038237474 -0.0003342747549847314 0.0 0.0005828413399226583 -0.0006952192554219391 0.0 0.001251019130099171 -0.0010411575519648616 0.0 0.0021780635652725233 -0.0013340716516697306 0.0 0.0033820991540882347 -0.001537356729005222 0.0 0.004864620146929198 -0.0016150700180950898 0.0 0.006640434926561688 -0.001535471038392989 0.0 0.008763178196136154 -0.0012615463698148264 0.0 0.011314125968127156 -0.0007353148666378948 0.0 0.014269446599623956 0.0001273105908115213 0.0 0.01748856535079432 0.001397565769809179 0.0 0.020848258098143387 0.00309438596703299 0.0 0.024279212676533345 0.005194510951545925 0.0 0.02774359695732365 0.007655285479476424 0.0 0.031197423093760224 0.010445652347541017 0.0 0.03459859645647846 0.013555698019520276 0.0 0.0379058895992492 0.016993294251122053 0.0 0.041077934874383895 0.020780208421592103 0.0 0.04407457544036791 0.024931944701791622 0.0 0.04685698520741747 0.02944628418274035 0.0 0.04939155765608151 0.03429597457936876 0.0 0.051651797751961034 0.03943565691989468 0.0 0.05361800262279419 0.04481229275430565 0.0 0.0552769300972786 0.05037219472610343 0.0 0.056621530308493054 0.05606467101898352 0.0 0.05765078235901687 0.06184378471683383 0.0 0.058371832763119885 0.06767102224732953 0.0 0.058806014572410484 0.07351122099115702 0.0 0.058993193444501366 0.0792913777679614 0.0 0.0 0.0 0.0 7.64127641489293e-05 -0.00022228264307035448 0.0 0.0004315752747810115 -0.00046274397543838696 0.0 0.0010363565196615404 -0.0006848479038752799 0.0 0.0018934055285148804 -0.0008525726486242732 0.0 0.0030180157446356524 -0.0009297863799973452 0.0 0.004401139547715373 -0.0008775584341898055 0.0 0.006036331713261016 -0.0006656501585377 0.0 0.007967210494117607 -0.00026409023587222434 0.0 0.010309524442137183 0.0003817738115596377 0.0 0.013104419074411424 0.0013815754639855322 0.0 0.016174947865257788 0.00283816575683862 0.0 0.019350775145190492 0.00471298156517889 0.0 0.022562869773917766 0.006927704589607245 0.0 0.02580497396270996 0.009430958461220839 0.0 0.029041125497683694 0.012217393615748355 0.0 0.03223690025105226 0.015284663044511516 0.0 0.0353538010427004 0.018663163215621927 0.0 0.03834923173845298 0.022386262432079015 0.0 0.04118085582385394 0.026469488377711833 0.0 0.043808469706335895 0.03090395214252497 0.0 0.046198838886969844 0.035654854566476324 0.0 0.048327013566191734 0.04067409045856361 0.0 0.05017516182965645 0.04590945110210119 0.0 0.05173193724444888 0.05130943811151108 0.0 0.05299203993032294 0.056825358972839614 0.0 0.05395614199350495 0.06241143166355324 0.0 0.054632814017994316 0.06802429584206719 0.0 0.05504239627528562 0.07361401894191512 0.0 0.0552186767669218 0.07909509474487864 0.0 0.0 0.0 0.0 9.145701954146286e-06 -0.00011180433365634047 0.0 0.00030015635559738253 -0.0002338640471389173 0.0 0.0008424855796416252 -0.0003337271621736429 0.0 0.0016301297103533804 -0.0003777184794380856 0.0 0.0026754189221631012 -0.0003319468378678498 0.0 0.0039722397213084884 -0.00015631014360769903 0.0 0.0054793877322133235 0.00018688257844976604 0.0 0.0072094265823446696 0.0007254941652860748 0.0 0.00932500013273833 0.0015037630517064006 0.0 0.01194279749183172 0.0027019932857299386 0.0 0.014876400896983506 0.004413922578019371 0.0 0.017881772281856653 0.006464742656399858 0.0 0.020874532183052692 0.00874515494232982 0.0 0.023891216488250985 0.011268709134045228 0.0 0.026910425472287388 0.014016672735026905 0.0 0.029905058459266057 0.0170205004699087 0.0 0.0328366797395081 0.020332897247469367 0.0 0.035659934659681036 0.0239932957481612 0.0 0.038330147022389835 0.028011588755335246 0.0 0.04080643166847757 0.03236755704608724 0.0 0.04305672443257638 0.03701888522185509 0.0 0.04505782717590508 0.04191581668151988 0.0 0.04679359593308087 0.04700772180268832 0.0 0.048254256489712766 0.05224551568918753 0.0 0.049435864111816524 0.05758246128243945 0.0 0.05034016221981992 0.06297296244632788 0.0 0.05097601706863471 0.06836985456641982 0.0 0.05136160045459545 0.07371369164518642 0.0 0.051525241979984066 0.07891269387416427 0.0 0.0 0.0 0.0 -4.5176035289250406e-05 -4.02099574883178e-06 0.0 0.00018882775965757944 -1.0897396181819953e-05 0.0 0.0006710010367148271 8.063948694392264e-06 0.0 0.0013913067014790998 8.368837631431328e-05 0.0 0.002355205174698909 0.0002462645811995274 0.0 0.0035764190828264913 0.0005359867757384262 0.0 0.004991943006894687 0.0009976514814459404 0.0 0.006542353033565612 0.0016799602220788424 0.0 0.008365024827019868 0.0026687994279257126 0.0 0.010830522643493663 0.00418186636976798 0.0 0.013624999195504566 0.006150108119565252 0.0 0.016440649961922904 0.008345652004941485 0.0 0.019207229168753004 0.010669344404769642 0.0 0.021996625816013353 0.013159160709860692 0.0 0.02480280720744718 0.015831026750014326 0.0 0.027602143706755754 0.018754389067840792 0.0 0.03035356200647084 0.022000937201880264 0.0 0.03300798029189827 0.02560548194633598 0.0 0.035518860425402414 0.02956388418515723 0.0 0.03784594946556971 0.033842351058925385 0.0 0.039959287343601116 0.03839198617910211 0.0 0.04183741344911855 0.04316366755580782 0.0 0.04346559324075149 0.048109036984490344 0.0 0.04483524989808268 0.05318168542379377 0.0 0.04594332877956589 0.0583370103227843 0.0 0.046792012505986025 0.06352998601237358 0.0 0.047389650353701046 0.06871126072476126 0.0 0.047751599009808965 0.07381640041646392 0.0 0.04790134753100138 0.07875042502134044 0.0 0.0 0.0 0.0 -8.739631965812744e-05 0.00010006920171596742 0.0 9.767951202209856e-05 0.0002039931610029949 0.0 0.0005230779730010742 0.0003368946784502164 0.0 0.0011777089537676783 0.0005247519542066414 0.0 0.002060032417933896 0.0007950804243506073 0.0 0.0032018703908862104 0.0011770353710751022 0.0 0.004560746524872486 0.0017037365681654528 0.0 0.006025566546154812 0.0024894595037460846 0.0 0.007599336987858719 0.003795806399231716 0.0 0.009767819938495709 0.005802279064380659 0.0 0.012373737094323576 0.008119793102360488 0.0 0.015016453031613072 0.01041804317037103 0.0 0.017560108334761227 0.012683249273122546 0.0 0.020118685228057237 0.015077981737994024 0.0 0.02271957961488394 0.017636614981024208 0.0 0.02533002114736978 0.02047780670362384 0.0 0.027904655031443994 0.02366990861201697 0.0 0.03039106063096377 0.027230309980633118 0.0 0.03274217009733746 0.031135203103052973 0.0 0.034920500351757096 0.03533470993327564 0.0 0.03689883006637519 0.039778983465850126 0.0 0.03865699162938843 0.04442119151543811 0.0 0.04018139077003118 0.04921591889279473 0.0 0.04146420533508508 0.05411981977374525 0.0 0.04250275560339069 0.05909071600980003 0.0 0.04329914345822414 0.0640847683105777 0.0 0.04386059912263511 0.0690523778277684 0.0 0.04419933612421418 0.07392785616412684 0.0 0.04433421937233735 0.07861465685439412 0.0 0.0 0.0 0.0 -0.00011820992543720067 0.00020032874365352233 0.0 2.6794114847180812e-05 0.00041052336276460475 0.0 0.000399725159179714 0.000652237091521341 0.0 0.0009886533070399568 0.0009455713560893368 0.0 0.0017910458660025403 0.001313863077295477 0.0 0.0028381983633736264 0.0017768754572356981 0.0 0.004120292887715386 0.0023664748041259697 0.0 0.005575471752535988 0.0031697522910868834 0.0 0.007135724870411234 0.004436120264897278 0.0 0.00884011138511714 0.006694087201771901 0.0 0.011043220855075996 0.009772224739713948 0.0 0.013505959274027104 0.012552365760000798 0.0 0.01592894919917212 0.014752173730759155 0.0 0.018264536056196573 0.016967720545035495 0.0 0.020667597495805066 0.019412148499113782 0.0 0.023094599413539654 0.022186158560185087 0.0 0.025492150543144666 0.025348502198769725 0.0 0.027806471995291748 0.028882711768871715 0.0 0.029993849005805276 0.03273625852963491 0.0 0.03202204942473547 0.036852262615853185 0.0 0.03386554930155559 0.0411857977834245 0.0 0.035505419384202284 0.045692722075374836 0.0 0.03692865688837821 0.050331609630220854 0.0 0.03812768602129004 0.055062537756041044 0.0 0.03909975369293431 0.05984595990303112 0.0 0.039846399999552626 0.06464011575320253 0.0 0.04037334612694428 0.0693970910323649 0.0 0.040689499888834614 0.07405338643826465 0.0 0.040808860890919695 0.07851197632366386 0.0 0.0 0.0 0.0 -0.00013750466938149743 0.0002983687311247981 0.0 -2.2797325746395856e-05 0.000612949633290872 0.0 0.00030232784016121617 0.0009607662034095415 0.0 0.0008251900967259057 0.0013567254141654977 0.0 0.0015461477667395515 0.0018163900228979771 0.0 0.0024900310078701288 0.0023561402285513346 0.0 0.0036661579810753145 0.002982989012469957 0.0 0.005084410010395911 0.0036683173186620004 0.0 0.006704254490541117 0.004645560074979894 0.0 0.008164203163422722 0.007351757141778094 0.0 0.009946738498219141 0.010329120405897315 0.0 0.01207788397475749 0.013613544595668924 0.0 0.01430368047403705 0.01669172555969248 0.0 0.016451781362184517 0.018791744309679684 0.0 0.01866344333587766 0.02113064288619243 0.0 0.020908012003911344 0.02388695237709631 0.0 0.02311968337674075 0.027061827869172456 0.0 0.025250588650685198 0.030582574309100437 0.0 0.027267195729922443 0.03437852450244048 0.0 0.029140868040841303 0.03840460336519916 0.0 0.030847450626473465 0.042619339537654774 0.0 0.03236874465559517 0.0469835915686921 0.0 0.03369173752364497 0.05146038334571297 0.0 0.034808595145624004 0.05601333678186871 0.0 0.0357160526431784 0.060605902159777736 0.0 0.036414694246563774 0.06519927747365584 0.0 0.036908501963555225 0.06974915848863522 0.0 0.03720286566695304 0.07419771497314372 0.0 0.037306582171138206 0.07844911073488997 0.0 0.0 0.0 0.0 -0.00014301208955825646 0.0003997575118433459 0.0 -4.733038870045047e-05 0.0008227555845229948 0.0 0.00023434085215167427 0.00128182946517052 0.0 0.0006907511817237355 0.0017844044174109327 0.0 0.0013239436400269804 0.0023405537872556482 0.0 0.002153200428394793 0.0029499228513027703 0.0 0.0031939132563036307 0.003599696955406708 0.0 0.004460702733456053 0.004242344339943219 0.0 0.005983103695593101 0.00509769887384157 0.0 0.0077629707221194295 0.00762555242648592 0.0 0.0092865302310862 0.010665560954827907 0.0 0.01084958196472876 0.014697212001785528 0.0 0.01269203086083582 0.018515810781485047 0.0 0.01469935399080183 0.02046135953637821 0.0 0.01674428702241003 0.02278444997197444 0.0 0.01878729919849899 0.02562842227457176 0.0 0.02078971787367818 0.02884864361801931 0.0 0.02272117075828259 0.032347620249624065 0.0 0.024555435718456593 0.03607675285423759 0.0 0.026266251646915525 0.040002341291504685 0.0 0.02783045206902785 0.044087939536829615 0.0 0.02922978878064827 0.04830063847668376 0.0 0.030450785098332555 0.05260790015325273 0.0 0.03148486914529561 0.05697699200525766 0.0 0.032327794894966864 0.06137472568586858 0.0 0.03297888042370922 0.06576598078653358 0.0 0.03344038106995638 0.07011188672620144 0.0 0.033714257965501086 0.07436470927469427 0.0 0.03380241206335538 0.07843272852162674 0.0 0.0 0.0 0.0 -0.0001266385764842901 0.0005141211456730815 0.0 -3.6224129760065964e-05 0.001064684341673766 0.0 0.00020507164498351693 0.00165406266506393 0.0 0.0005942463029845737 0.002288337889174776 0.0 0.0011322065940826817 0.0029740327877236525 0.0 0.0018304894725611174 0.0037165442218357507 0.0 0.0027035670382611777 0.004521124712116065 0.0 0.0037577110421804544 0.005417276712087939 0.0 0.005053403469118335 0.0065302473370089115 0.0 0.006905966079364993 0.00824288743843667 0.0 0.00884255161666942 0.011427226500476274 0.0 0.010283891987481402 0.01589731572821209 0.0 0.011504109130491835 0.019815456541612105 0.0 0.013155547632831003 0.02189378432158139 0.0 0.014957456214859353 0.024492344795515566 0.0 0.016747485345288086 0.027491039718138745 0.0 0.018507028984155825 0.030740138220858672 0.0 0.020218200098107028 0.03419777044601335 0.0 0.0218538135303997 0.03784665085394866 0.0 0.023388185683037896 0.04165755172260794 0.0 0.024799223354281752 0.045602062378348115 0.0 0.026068214898034417 0.04965289663030301 0.0 0.027180924390192852 0.05378198506673264 0.0 0.028127680006342956 0.05796029575414982 0.0 0.02890295835478545 0.062158184691062754 0.0 0.029504615095560918 0.06634483243217806 0.0 0.029932984866589622 0.07048826066608137 0.0 0.030187369117903214 0.07455564058928757 0.0 0.030261929387636187 0.07846947318137287 0.0 0.0 0.0 0.0 -6.783745751005809e-05 0.0006614063855880554 0.0 3.187491238224549e-05 0.0013741245534285768 0.0 0.00023710781895171384 0.0021368804610469644 0.0 0.0005588084327515586 0.0029524411313635074 0.0 0.00100090399902189 0.003837440301779367 0.0 0.0015670613304285942 0.004813469837500859 0.0 0.0022746625834106494 0.005914758349246987 0.0 0.0031481889601539283 0.007215152537495152 0.0 0.004223327898625813 0.008826827591697329 0.0 0.005638198536351341 0.010807213977449565 0.0 0.0077499666515217685 0.013687070175042346 0.0 0.009650985051659145 0.01730903412478075 0.0 0.010909225615983642 0.020778353123781804 0.0 0.01198927458395501 0.023501286578493194 0.0 0.013337192013406107 0.02645146277624559 0.0 0.014798643058741824 0.029530455719246684 0.0 0.01628313534315932 0.03275826185983119 0.0 0.017747781595049618 0.03615344464252266 0.0 0.019162818710947334 0.03970408975957876 0.0 0.020500480169059157 0.04338477605840726 0.0 0.02173985341233109 0.04717508006801794 0.0 0.022862286674513115 0.05105281192104798 0.0 0.023852675996106465 0.054994145588742445 0.0 0.024700164879054198 0.058973639167929526 0.0 0.0