<?xml version="1.0" ?>
<VTKFile byte_order="LittleEndian" type="UnstructuredGrid" version="0.1">
<UnstructuredGrid>
<Piece NumberOfCells="725" NumberOfPoints="750">
<Points>
<DataArray NumberOfComponents="3" format="ascii" type="Float32">10.0 0.0 0.0 9.827586206896552 0.0 0.0 9.655172413793103 0.0 0.0 9.482758620689655 0.0 0.0 9.310344827586208 0.0 0.0 9.13793103448276 0.0 0.0 8.96551724137931 0.0 0.0 8.793103448275863 0.0 0.0 8.620689655172415 0.0 0.0 8.448275862068966 0.0 0.0 8.275862068965518 0.0 0.0 8.10344827586207 0.0 0.0 7.931034482758621 0.0 0.0 7.758620689655173 0.0 0.0 7.586206896551724 0.0 0.0 7.413793103448276 0.0 0.0 7.241379310344828 0.0 0.0 7.06896551724138 0.0 0.0 6.8965517241379315 0.0 0.0 6.724137931034484 0.0 0.0 6.551724137931036 0.0 0.0 6.379310344827587 0.0 0.0 6.206896551724139 0.0 0.0 6.0344827586206895 0.0 0.0 5.862068965517242 0.0 0.0 5.689655172413794 0.0 0.0 5.517241379310345 0.0 0.0 5.344827586206897 0.0 0.0 5.17241379310345 0.0 0.0 5.0 0.0 0.0 9.98222307273156 0.5960054749963711 0.0 9.810115778374122 0.5857295185309166 0.0 9.63800848401668 0.5754535620654618 0.0 9.465901189659242 0.5651776056000072 0.0 9.293793895301798 0.5549016491345525 0.0 9.121686600944358 0.5446256926690978 0.0 8.94957930658692 0.5343497362036431 0.0 8.777472012229477 0.5240737797381885 0.0 8.605364717872035 0.5137978232727337 0.0 8.433257423514595 0.5035218668072792 0.0 8.261150129157155 0.4932459103418245 0.0 8.089042834799715 0.48296995387636993 0.0 7.916935540442274 0.4726939974109151 0.0 7.744828246084834 0.46241804094546046 0.0 7.572720951727392 0.4521420844800057 0.0 7.400613657369952 0.441866128014551 0.0 7.228506363012512 0.43159017154909635 0.0 7.056399068655072 0.42131421508364175 0.0 6.88429177429763 0.4110382586181871 0.0 6.712184479940188 0.40076230215273234 0.0 6.540077185582749 0.3904863456872777 0.0 6.367969891225309 0.38021038922182293 0.0 6.195862596867867 0.3699344327563684 0.0 6.023755302510427 0.35965847629091363 0.0 5.851648008152986 0.34938251982545887 0.0 5.679540713795545 0.3391065633600042 0.0 5.507433419438103 0.32883060689454957 0.0 5.335326125080664 0.3185546504290949 0.0 5.163218830723222 0.30827869396364016 0.0 4.99111153636578 0.29800273749818557 0.0 9.927302519591656 1.2036048705904863 0.0 9.756142131322836 1.1828530624768574 0.0 9.584981743054014 1.162101254363228 0.0 9.413821354785192 1.141349446249599 0.0 9.24266096651637 1.1205976381359701 0.0 9.07150057824755 1.0998458300223413 0.0 8.90034018997873 1.079094021908712 0.0 8.729179801709908 1.0583422137950829 0.0 8.558019413441086 1.0375904056814536 0.0 8.386859025172262 1.0168385975678247 0.0 8.21569863690344 0.9960867894541956 0.0 8.044538248634622 0.9753349813405667 0.0 7.873377860365798 0.9545831732269375 0.0 7.702217472096976 0.9338313651133083 0.0 7.531057083828155 0.9130795569996792 0.0 7.359896695559334 0.8923277488860502 0.0 7.188736307290511 0.8715759407724211 0.0 7.01757591902169 0.8508241326587922 0.0 6.846415530752869 0.830072324545163 0.0 6.675255142484048 0.809320516431534 0.0 6.5040947542152265 0.7885687083179048 0.0 6.3329343659464055 0.7678169002042758 0.0 6.161773977677582 0.7470650920906465 0.0 5.99061358940876 0.7263132839770174 0.0 5.81945320113994 0.7055614758633885 0.0 5.648292812871118 0.6848096677497593 0.0 5.477132424602295 0.6640578596361304 0.0 5.305972036333472 0.6433060515225011 0.0 5.134811648064651 0.622554243408872 0.0 4.963651259795828 0.6018024352952431 0.0 9.833053684165744 1.8196305241214477 0.0 9.66351827581806 1.7882575840503887 0.0 9.493982867470375 1.7568846439793295 0.0 9.324447459122691 1.7255117039082695 0.0 9.154912050775005 1.69413876383721 0.0 8.98537664242732 1.662765823766151 0.0 8.815841234079635 1.6313928836950913 0.0 8.646305825731949 1.6000199436240314 0.0 8.476770417384264 1.5686470035529725 0.0 8.307235009036578 1.537274063481913 0.0 8.137699600688894 1.505901123410854 0.0 7.968164192341209 1.4745281833397947 0.0 7.798628783993522 1.443155243268735 0.0 7.629093375645837 1.4117823031976753 0.0 7.459557967298151 1.3804093631266157 0.0 7.290022558950465 1.3490364230555558 0.0 7.120487150602782 1.3176634829844969 0.0 6.9509517422550955 1.2862905429134375 0.0 6.781416333907411 1.254917602842378 0.0 6.611880925559727 1.2235446627713187 0.0 6.442345517212043 1.1921717227002588 0.0 6.272810108864357 1.1607987826291994 0.0 6.103274700516673 1.12942584255814 0.0 5.933739292168986 1.0980529024870802 0.0 5.7642038838213 1.0666799624160208 0.0 5.594668475473615 1.0353070223449614 0.0 5.425133067125928 1.003934082273902 0.0 5.255597658778243 0.9725611422028428 0.0 5.086062250430559 0.9411882021317832 0.0 4.916526842082872 0.9098152620607238 0.0 9.697620891563346 2.4405222890836566 0.0 9.53042053136398 2.3984443185822153 0.0 9.363220171164611 2.3563663480807726 0.0 9.196019810965243 2.31428837757933 0.0 9.028819450765877 2.272210407077888 0.0 8.86161909056651 2.230132436576445 0.0 8.694418730367142 2.1880544660750028 0.0 8.527218370167772 2.14597649557356 0.0 8.360018009968403 2.103898525072118 0.0 8.192817649769037 2.061820554570676 0.0 8.025617289569668 2.019742584069234 0.0 7.8584169293703 1.9776646135677918 0.0 7.691216569170931 1.9355866430663489 0.0 7.524016208971562 1.8935086725649064 0.0 7.356815848772195 1.851430702063464 0.0 7.189615488572826 1.8093527315620213 0.0 7.022415128373458 1.767274761060579 0.0 6.855214768174092 1.7251967905591372 0.0 6.688014407974722 1.6831188200576945 0.0 6.520814047775357 1.6410408495562523 0.0 6.353613687575989 1.5989628790548096 0.0 6.186413327376623 1.5568849085533674 0.0 6.019212967177253 1.5148069380519247 0.0 5.852012606977884 1.4727289675504822 0.0 5.684812246778516 1.4306509970490398 0.0 5.517611886579148 1.3885730265475977 0.0 5.350411526379778 1.3464950560461555 0.0 5.183211166180412 1.3044170855447133 0.0 5.016010805981042 1.2623391150432708 0.0 4.848810445781673 1.2202611445418283 0.0 9.519554412554495 3.06236571728692 0.0 9.355424164062176 3.0095663083681803 0.0 9.191293915569858 2.9567668994494403 0.0 9.027163667077541 2.9039674905307002 0.0 8.863033418585221 2.8511680816119607 0.0 8.698903170092905 2.7983686726932206 0.0 8.534772921600586 2.74556926377448 0.0 8.370642673108266 2.6927698548557397 0.0 8.206512424615948 2.639970445937 0.0 8.04238217612363 2.58717103701826 0.0 7.87825192763131 2.534371628099521 0.0 7.71412167913899 2.4815722191807805 0.0 7.5499914306466716 2.428772810262041 0.0 7.3858611821543505 2.3759734013433 0.0 7.221730933662034 2.32317399242456 0.0 7.057600685169711 2.2703745835058196 0.0 6.8934704366773945 2.21757517458708 0.0 6.729340188185077 2.164775765668341 0.0 6.565209939692757 2.1119763567496004 0.0 6.401079691200438 2.05917694783086 0.0 6.23694944270812 2.00637753891212 0.0 6.072819194215802 1.9535781299933799 0.0 5.908688945723485 1.9007787210746394 0.0 5.744558697231165 1.8479793121558996 0.0 5.580428448738845 1.7951799032371594 0.0 5.416298200246526 1.7423804943184198 0.0 5.252167951754206 1.68958108539968 0.0 5.088037703261888 1.63678167648094 0.0 4.9239074547695685 1.5839822675622002 0.0 4.759777206277247 1.53118285864346 0.0 9.297883010624302 3.6809470956187287 0.0 9.137574682854922 3.617482490521855 0.0 8.977266355085536 3.5540178854249795 0.0 8.816958027316153 3.490553280328105 0.0 8.656649699546767 3.4270886752312304 0.0 8.496341371777383 3.3636240701343567 0.0 8.336033044007998 3.3001594650374804 0.0 8.175724716238614 3.236694859940606 0.0 8.01541638846923 3.173230254843732 0.0 7.8551080606998465 3.1097656497468575 0.0 7.694799732930461 3.046301044649983 0.0 7.534491405161076 2.9828364395531084 0.0 7.37418307739169 2.9193718344562334 0.0 7.213874749622306 2.855907229359359 0.0 7.0535664218529215 2.792442624262484 0.0 6.893258094083535 2.728978019165609 0.0 6.732949766314151 2.6655134140687347 0.0 6.5726414385447685 2.602048808971861 0.0 6.412333110775382 2.5385842038749855 0.0 6.252024783005998 2.4751195987781114 0.0 6.0917164552366145 2.4116549936812364 0.0 5.931408127467233 2.3481903885843614 0.0 5.771099799697847 2.284725783487487 0.0 5.610791471928462 2.2212611783906113 0.0 5.450483144159077 2.157796573293737 0.0 5.290174816389692 2.0943319681968626 0.0 5.129866488620308 2.030867363099988 0.0 4.969558160850923 1.9674027580031137 0.0 4.809249833081537 1.903938152906239 0.0 4.648941505312151 1.8404735478093643 0.0 9.032177938385688 4.291824983540085 0.0 8.876450732551454 4.217828001065257 0.0 8.720723526717219 4.1438310185904275 0.0 8.564996320882983 4.069834036115599 0.0 8.409269115048748 3.99583705364077 0.0 8.253541909214512 3.92184007116594 0.0 8.097814703380275 3.8478430886911106 0.0 7.94208749754604 3.773846106216282 0.0 7.786360291711805 3.699849123741453 0.0 7.630633085877568 3.6258521412666234 0.0 7.474905880043331 3.5518551587917946 0.0 7.319178674209096 3.4778581763169667 0.0 7.16345146837486 3.403861193842137 0.0 7.007724262540623 3.329864211367308 0.0 6.851997056706388 3.2558672288924777 0.0 6.696269850872149 3.181870246417648 0.0 6.540542645037913 3.1078732639428197 0.0 6.384815439203679 3.033876281467992 0.0 6.229088233369443 2.9598792989931626 0.0 6.073361027535206 2.885882316518333 0.0 5.917633821700972 2.8118853340435037 0.0 5.761906615866738 2.7378883515686754 0.0 5.606179410032501 2.6638913690938457 0.0 5.450452204198264 2.589894386619016 0.0 5.294724998364027 2.5158974041441873 0.0 5.138997792529791 2.4419004216693585 0.0 4.9832705866955544 2.3679034391945293 0.0 4.827543380861319 2.293906456719701 0.0 4.6718161750270815 2.2199094742448713 0.0 4.516088969192844 2.1459124917700425 0.0 8.72260419102717 4.890416764108683 0.0 8.57221446359567 4.806099233693017 0.0 8.421824736164165 4.721781703277351 0.0 8.271435008732663 4.637464172861683 0.0 8.12104528130116 4.553146642446016 0.0 7.970655553869658 4.468829112030349 0.0 7.820265826438155 4.384511581614682 0.0 7.669876099006653 4.300194051199014 0.0 7.519486371575151 4.215876520783349 0.0 7.369096644143648 4.131558990367681 0.0 7.2187069167121445 4.047241459952014 0.0 7.06831718928064 3.9629239295363474 0.0 6.9179274618491
[...]
<PointData>
<DataArray Name="displ" NumberOfComponents="3" format="ascii" type="Float32">0.0 0.0 0.0 0.0 0.0 0.0 0.0 0.0 0.0 0.0 0.0 0.0 0.0 0.0 0.0 0.0 0.0 0.0 0.0 0.0 0.0 0.0 0.0 0.0 0.0 0.0 0.0 0.0 0.0 0.0 0.0 0.0 0.0 0.0 0.0 0.0 0.0 0.0 0.0 0.0 0.0 0.0 0.0 0.0 0.0 0.0 0.0 0.0 0.0 0.0 0.0 0.0 0.0 0.0 0.0 0.0 0.0 0.0 0.0 0.0 0.0 0.0 0.0 0.0 0.0 0.0 0.0 0.0 0.0 0.0 0.0 0.0 0.0 0.0 0.0 0.0 0.0 0.0 0.0 0.0 0.0 0.0 0.0 0.0 0.0 0.0 0.0 0.0 0.0 0.0 0.0010230983854657293 -0.0012474519708031327 0.0 0.0008999788608638119 -0.0010826162350108272 0.0 0.0007871940267255098 -0.0009719564968942647 0.0 0.0006845903108017859 -0.0008831956623057434 0.0 0.000591871031782519 -0.0007998301475809188 0.0 0.0005067491112697236 -0.0007200660089089587 0.0 0.00042848461386857595 -0.0006429627567455377 0.0 0.00035645657800085215 -0.0005663350830837994 0.0 0.00029034936521182744 -0.0004899612151715075 0.0 0.00022958612006456739 -0.0004139842547601444 0.0 0.00017396308982687368 -0.00033840209674777924 0.0 0.00012325264859114294 -0.00026320714676701185 0.0 7.730089558562586e-05 -0.00018866063162790962 0.0 3.5999791633573254e-05 -0.00011494680746615874 0.0 -8.24199913052442e-07 -4.236034930594463e-05 0.0 -3.325338770955317e-05 2.8958340455111683e-05 0.0 -6.143739525474664e-05 9.875136674155132e-05 0.0 -8.544330095861628e-05 0.00016703597003875614 0.0 -0.00010539857312385614 0.0002339943124727811 0.0 -0.00012116926429756486 0.0003000486028916672 0.0 -0.00013252576450351652 0.0003658569161600311 0.0 -0.0001387422646900874 0.00043308474634122475 0.0 -0.00013911878933610622 0.0005031871931577426 0.0 -0.00013076756861741992 0.0005794953285570574 0.0 -0.00011167840809014703 0.0006642274464302837 0.0 -7.538978507252409e-05 0.0007640535991944139 0.0 -1.6643828715845685e-05 0.0008816673317240683 0.0 7.917742880568423e-05 0.00102187849011923 0.0 0.00022642532838390808 0.0012015818854349649 0.0 0.00045069681622025804 0.0014532571280520053 0.0 0.0019349678787733073 -0.0022834343685455842 0.0 0.001810875088910584 -0.0021269998313552846 0.0 0.0016810674888817626 -0.001963529907107964 0.0 0.00155038372070218 -0.0018006246891673623 0.0 0.0014214116176691626 -0.001641824464634463 0.0 0.0012956085806966346 -0.0014839408671240878 0.0 0.001173569386768634 -0.0013261326136350424 0.0 0.001056271061524097 -0.001168431239361909 0.0 0.0009440337386443829 -0.0010108454643292166 0.0 0.000837333616448099 -0.0008533867161537108 0.0 0.0007364551546769489 -0.0006963906521412641 0.0 0.0006417338480400113 -0.0005402898508213309 0.0 0.0005532822838075612 -0.0003855991244328822 0.0 0.0004711845112967835 -0.0002326884036813654 0.0 0.00039564629864035955 -8.225248436563657e-05 0.0 0.0003267500602749238 6.540082012457827e-05 0.0 0.0002645821198029976 0.00020980283095356635 0.0 0.00020922713845385584 0.00035095780878559757 0.0 0.00016089768044370303 0.0004891149173570444 0.0 0.00011978409944182172 0.0006253616683869211 0.0 8.616977884906945e-05 0.000761414196779644 0.0 6.105472355927489e-05 0.0009007509099665497 0.0 4.5360862896271586e-05 0.0010464708901724452 0.0 4.212497283692136e-05 0.0012069288581885843 0.0 5.344242082712946e-05 0.0013869984539564776 0.0 8.59635150365964e-05 0.0015980289724558505 0.0 0.00014393949664345815 0.0018464339787968563 0.0 0.00023805289149278236 0.0021472799404140177 0.0 0.00037290544134912433 0.002506798234099305 0.0 0.0005555703308876515 0.0029344531998157335 0.0 0.0032706274526133066 -0.003323832758240161 0.0 0.0031027810783260225 -0.003109727135118345 0.0 0.002935075335669938 -0.00289049558502823 0.0 0.002767531306875743 -0.002665859065517031 0.0 0.0026003161853532827 -0.0024358547643235605 0.0 0.0024350647987734695 -0.0022023457601746026 0.0 0.0022724158770455792 -0.0019660023422168223 0.0 0.002113331189190506 -0.0017276488262943958 0.0 0.0019582974217742027 -0.0014878109993887532 0.0 0.0018082026861683152 -0.001247515650712198 0.0 0.0016634590908925838 -0.001007395350905099 0.0 0.001524548895495432 -0.00076820911115879 0.0 0.001392233232808692 -0.0005310725346832625 0.0 0.0012670081149149357 -0.0002967657543376297 0.0 0.001149150273541947 -6.647374699507751e-05 0.0 0.0010387724480744871 0.00015919576021045052 0.0 0.0009360021479512632 0.0003789469323712757 0.0 0.0008408170035127439 0.0005929536343319687 0.0 0.0007530850695428212 0.0008023950434684062 0.0 0.0006731874395070349 0.0010088254257651361 0.0 0.0006017474312907145 0.0012146110970118285 0.0 0.0005394401407106472 0.001425614369537523 0.0 0.000486924121288852 0.0016470666117593187 0.0 0.00044714099241905753 0.0018931153759738273 0.0 0.0004222071207673489 0.0021719009302612656 0.0 0.0004192399998273587 0.0025017642098260854 0.0 0.0004424435898774723 0.0028903014267470687 0.0 0.0005019501642387083 0.0033514515237130214 0.0 0.0006048579621440353 0.0038942015190075343 0.0 0.0007632781950598599 0.004533675167150884 0.0 0.00512144297580989 -0.004299653477269192 0.0 0.0048999444789603035 -0.00402510855660142 0.0 0.004676584250737976 -0.0037368942700297127 0.0 0.004453442533969423 -0.0034384482632907895 0.0 0.004231675465014973 -0.003131710706301277 0.0 0.0040123646538636005 -0.002818778450201889 0.0 0.003796048894597307 -0.0025006362989720963 0.0 0.003583912537426458 -0.002179298622575256 0.0 0.0033764101601302986 -0.0018556334288151463 0.0 0.0031742815946256353 -0.0015311308999961413 0.0 0.0029780849963914916 -0.0012068618662941966 0.0 0.002788485250702701 -0.0008841207649425546 0.0 0.0026053406608377164 -0.0005644246707388297 0.0 0.0024286173505512583 -0.0002488811348594161 0.0 0.002259143985603981 6.020671198208986e-05 0.0 0.0020972340317328758 0.0003617807708849416 0.0 0.0019431245365231897 0.0006540609536306321 0.0 0.0017968908815765693 0.0009372267200677547 0.0 0.0016586415773351872 0.001212718299005514 0.0 0.001527965133312852 0.0014829530662008542 0.0 0.0014041965246145518 0.0017516532505756468 0.0 0.001287841812358119 0.0020276636457121204 0.0 0.0011794310920168341 0.0023189729830101714 0.0 0.0010817197499299728 0.0026490695002646383 0.0 0.000997097255259264 0.0030309139285602422 0.0 0.0009354041280424844 0.0034906374575977136 0.0 0.0009017580650994347 0.0040364735785291305 0.0 0.0009075559813869478 0.0046785464088317155 0.0 0.0009583158837869573 0.0054231898459635546 0.0 0.0010627866214562667 0.006281006052045866 0.0 0.007572178967470709 -0.0051702866685684875 0.0 0.00727009774130382 -0.0048158917547502685 0.0 0.006968502335721377 -0.004446279520870872 0.0 0.006668295609075521 -0.004064713016665984 0.0 0.006370073024682843 -0.003673135721852824 0.0 0.0060752824729311435 -0.0032746017552273687 0.0 0.005784595998351806 -0.0028703595068201937 0.0 0.005499366952905617 -0.002462465760807335 0.0 0.005220377240020688 -0.0020519953343735623 0.0 0.004949113829736611 -0.0016409306447030094 0.0 0.004686375907398095 -0.001230258646297743 0.0 0.004433114839262819 -0.0008211744013566453 0.0 0.00419100516030226 -0.0004179775917803907 0.0 0.003960916740701428 -2.3402791652247117e-05 0.0 0.0037402138147812486 0.0003620230194286019 0.0 0.0035274958459879536 0.0007364551755703498 0.0 0.003319587937083706 0.0010898710016106867 0.0 0.0031153214936012826 0.0014253263751686988 0.0 0.0029127623267514763 0.0017571174482566665 0.0 0.0027140463228292784 0.0020834731253319833 0.0 0.002522767282658515 0.0024000745844310876 0.0 0.0023342554404625696 0.002722573567207274 0.0 0.0021451112470629832 0.0030655431251512826 0.0 0.0019621685897106855 0.003477724357031587 0.0 0.0017899508353048602 0.00398152487492961 0.0 0.00164192688092533 0.004596185564157301 0.0 0.0015250184005040934 0.005327160815926476 0.0 0.0014545124396102105 0.006179618816506104 0.0 0.0014355860079144245 0.007150293246436708 0.0 0.0014755779280682577 0.008231750835312003 0.0 0.010711009047091855 -0.005854380724005189 0.0 0.01030255350938778 -0.005404079569407397 0.0 0.009896064483195672 -0.004940714307205928 0.0 0.009492106189074109 -0.004467668929755244 0.0 0.009091031585705659 -0.003986853757382717 0.0 0.008693545358055239 -0.003500337424304979 0.0 0.008300113251730915 -0.003009006758314026 0.0 0.007912047881899417 -0.002514449460432473 0.0 0.007530221684435017 -0.0020173798398309566 0.0 0.007156355704113072 -0.0015190461549642927 0.0 0.006792564447889074 -0.0010205180435567504 0.0 0.006441458198730772 -0.0005231365299674 0.0 0.006104757937085838 -3.108048584340596e-05 0.0 0.00578449909584093 0.00045245129243694845 0.0 0.005494735920946435 0.0009190197845319777 0.0 0.005237354721118681 0.0013612374435471928 0.0 0.0049957952542294655 0.0017515186842032523 0.0 0.004759594580395217 0.0021061286311784533 0.0 0.00450545302004927 0.002488172708723177 0.0 0.004240673251203992 0.0028634060862443777 0.0 0.0039793621717837905 0.003170721940710209 0.0 0.003707059708459175 0.0034856772300064795 0.0 0.0034130865559132907 0.0038708203413908614 0.0 0.0031159100856338567 0.004380880778002934 0.0 0.0028259423775811076 0.005040088893621349 0.0 0.002565458289650235 0.005862797064277628 0.0 0.0023422641145472325 0.006842176018732692 0.0 0.0021679522701226607 0.007941104870833974 0.0 0.0020495329541769143 0.009156357766762173 0.0 0.001998667085889299 0.010488583483885023 0.0 0.014576017566623644 -0.006224820639310132 0.0 0.014040416418018297 -0.005670032505217298 0.0 0.013510020249458323 -0.00510959071325027 0.0 0.012984113008576914 -0.004544678373028284 0.0 0.012462304467211447 -0.003975959944148122 0.0 0.011944303076627956 -0.003404122883060034 0.0 0.011430040786320905 -0.002829509246001373 0.0 0.010919562347125138 -0.0022528699321408985 0.0 0.010413063679431473 -0.0016742171950082816 0.0 0.00991100966792998 -0.0010933455399436702 0.0 0.009414514385081847 -0.0005121107214759648 0.0 0.008925003196032226 6.71216440513555e-05 0.0 0.008445297949006798 0.0006447431641607088 0.0 0.007977799537405225 0.0012209319251988864 0.0 0.007531749393742989 0.0017946172908582842 0.0 0.007118337271386515 0.002357752537558322 0.0 0.006786370324397145 0.002864181045015831 0.0 0.0065293898640300385 0.0032961857701874183 0.0 0.006303254431786422 0.003623445358390366 0.0 0.006077788701559846 0.0038497515342562775 0.0 0.005809623678038207 0.003985039562642822 0.0 0.00545976879701923 0.004201760177261833 0.0 0.005002669887917791 0.004637998988448364 0.0 0.0045413784090373105 0.005348986053551057 0.0 0.004118675482662366 0.006338933017430484 0.0 0.0037394234817358187 0.007464531648401707 0.0 0.0034044454852610725 0.008701330049919628 0.0 0.003112959609810629 0.010071645517786068 0.0 0.0028721334272654385 0.011570375102312193 0.0 0.002696280385211903 0.013183210733523777 0.0 0.019072453003703336 -0.006138521823472404 0.0 0.018402532742554267 -0.005487034980391143 0.0 0.01774058229095293 -0.00483537024879197 0.0 0.017085979551550702 -0.004183167618370548 0.0 0.01643834175260066 -0.003530212033345515 0.0 0.01579695869340888 -0.0028761599249819475 0.0 0.015161491443650752 -0.002220870616826004 0.0 0.014531232373503839 -0.0015641115991999856 0.0 0.013905750577025306 -0.0009052807616433137 0.0 0.013284214609015944 -0.00024297918301633363 0.0 0.01266660165476298 0.0004215596114494855 0.0 0.012052905133994278 0.0010868753135053174 0.0 0.011441126808412614 0.0017676625010167475 0.0 0.010830959032765913 0.0024744061151104188 0.0 0.01023627613671188 0.003225407771849871 0.0 0.009664888391987484 0.0040202594809795045 0.0 0.009136136217726337 0.004820210095331448 0.0 0.008664153726388686 0.005520506158257354 0.0 0.008281943559241486 0.0058238258089633515 0.0 0.00796277149453467 0.0059614931040249865 0.0 0.007660483014425968 0.006332957400453489 0.0 0.007371752979581451 0.006626128697208957 0.0 0.007086037632624056 0.006623480627071934 0.0 0.006618685533453798 0.0070298721536095786 0.0 0.005931096336656496 0.0080924758545195 0.0 0.005311242535926936 0.00949026503798987 0.0 0.004808806899118415 0.011112119428733042 0.0 0.0043810026472868545 0.012796174145746504 0.0 0.004007747665397948 0.014537440299087382 0.0 0.0036574492916040865 0.016356686782350492 0.0 0.024028712821524686 -0.0054884329038172265 0.0 0.023221655910493272 -0.00475318710686929 0.0 0.022424731867770872 -0.004019158331670232 0.0 0.021637818160496133 -0.003285482009027058 0.0 0.020860836005703518 -0.0025516046926365656 0.0 0.02009361011631698 -0.0018163149873106584 0.0 0.0193360975058763 -0.0010788553000362377 0.0 0.018588315305162053 -0.00033717219951987876 0.0 0.01784997646499082 0.00041049109242951556 0.0 0.017120373938149476 0.0011677850601003864 0.0 0.016400720848555504 0.0019391945357607983 0.0 0.015692476728705246 0.0027305095086261645 0.0 0.014986027029032014 0.0035651636785373197 0.0 0.014277254170876118 0.004457187834201343 0.0 0.013594351975811509 0.005396651323454011 0.0 0.01293762431606103 0.0063866694408884865 0.0 0.012252968975610186 0.007465632460815724 0.0 0.011540393344207478 0.008536714632898464 0.0 0.010827194445198677 0.009287684293034178 0.0 0.010173414642587194 0.009742469474263547 0.0 0.009671606625608656 0.009973623328715805 0.0 0.009306686868987944 0.01012908813871245 0.0 0.009059600200398053 0.010328883094166429 0.0 0.008792743306093292 0.010668875879000079 0.0 0.008426420575264272 0.011251017789050778 0.0 0.007778181432229677 0.012564367815869936 0.0 0.006916143758532003 0.014505333316936445 0.0 0.00624189452523573 0.01629449023263559 0.0 0.005695597860282793 0.017991015258761605 0.0 0.0050830086752837456 0.019859346281777896 0.0 0.02929471397767074 -0.004194590728823918 0.0 0.028345756879439292 -0.0033859399784376405 0.0 0.027408813983088517 -0.0025781692147287837 0.0 0.026483833790019614 -0.0017699081799285375 0.0 0.0255707882013723 -0.000960226423416224 0.0 0.024669655898092346 -0.00014664739403697635 0.0 0.02378046481713943 0.0006723456246364633 0.0 0.02290337345041217 0.001500799282189211 0.0 0.02203830896317609 0.002341628707251326 0.0 0.02118504361913826 0.0032006909250567417 0.0 0.02034352009828038 0.004084896457593645 0.0 0.01951363256921872 0.005002774204951234 0.0 0.01869178273245927 0.005960848344613041 0.0 0.017875951597625585 0.00696270466611441 0.0 0.01706967250941834 0.008001108356716042 0.0 0.01627278264433829 0.0090789618529037 0.0 0.015477296295672308 0.010228030795583003 0.0 0.014671180785671895 0.011427220994898058 0.0 0.01382206560238294 0.012596712801406725 0.0 0.012978729518999841 0.01353400924759256 0.0 0.012222202579801306 0.01392760739863206 0.0 0.011514197581829779 0.014391310345310358 0.0 0.010834987166723632 0.015376864097336448 0.0 0.010431243130586972 0.016129566021869112 0.0 0.010333362613655455 0.016450695568073038 0.0 0.009991623845553032 0.017197970864416046 0.0 0.009342696205542926 0.018467703437460445 0.0 0.008586737351240563 0.0199381852731377 0.0 0.007773925618949762 0.021563586817099613 0.0 0.006965555552785022 0.02331420830867481 0.0 0.03474281106521565 -0.002183834941551979 0.0 0.03364849675657104 -0.0013138097046487634 0.0 0.03256762163289474 -0.0004442544818543865 0.0 0.03149983758943587 0.0004268911131539169 0.0 0.030444931053364894 0.0013009767899479388 0.0 0.029402511026517 0.002181210860102053 0.0 0.028372363821987934 0.003069324639438364 0.0 0.027353972098448087 0.003969459014876338 0.0 0.026346936878864767 0.004884059273481881 0.0 0.025350445100693043 0.005817804390357574 0.0 0.024363630984951323 0.006772894292641169 0.0 0.02338543435136084 0.0077518525890633285 0.0 0.022415332352753763 0.008754500731333353 0.0 0.021452831200531163 0.00978112627208323 0.0 0.020495476536528542 0.010837662305863648 0.0 0.01954278050575615 0.011923342814812488 0.0 0.018596684459224834 0.013021802766500756 0.0 0.01765736067119866 0.01412942564951037 0.0 0.016724351538115655 0.015243522404330202 0.0 0.015796179985693083 0.01634185853919869 0.0 0.014870558544873076 0.01738936627941198 0.0 0.013951471972795155 0.018395182097825726 0.0 0.013048118918456147 0.01935990199197946 0.0 0.012293392020327204 0.020130717898132824 0.0 0.011735612912398448 0.02068293995595207 0.0 0.011327666679075336 0.0213114295169163 0.0 0.010972997055162005 0.022142863743192513 0.0 0.010346116145023242 0.023418462447234164 0.0 0.00952264062159507 0.024998873742406655 0.0 0.008713603953200448 0.026563047736413915 0.0 0.04024040088468549 0.0005916274621342911 0.0 0.03900200473291089 0.001503201486724399 0.0 0.03777717593080561 0.0024145642517230978 0.0 0.03656548507809158 0.003327897664714506 0.0 0.03536665573181417 0.00424455644707187 0.0 0.03418006987793968 0.005167159044687803 0.0 0.033005391084166766 0.0060969469613735144 0.0 0.031841807874654265 0.0070364909563328925 0.0 0.030688847225045855 0.007986776767967808 0.0 0.02954560729539577 0.008949407906199008 0.0 0.02841146328551739 0.009924778883560793 0.0 0.02728566026443624 0.010913306427299926 0.0 0.02616719358525229 0.011915608574086533 0.0 0.025055391992192946 0.01293162238337223 0.0 0.02394964409775132 0.013954755516334728 0.0 0.022849793504520384 0.0149820538979181 0.0 0.02175611458032562 0.016008869684303068 0.0 0.020669640990064762 0.017029786361969716 0.0 0.01959336103882226 0.01803076322451047 0.0 0.018530538994444394 0.019011963797949342 0.0 0.017486066901729422 0.019975103729089033 0.0 0.016465952514651702 0.020899804328787658 0.0 0.015476098285264342 0.021772018644282652 0.0 0.014543458701715407 0.02263581831556598 0.0 0.013681123469222964 0.0235223181083263 0.0 0.012905174547341162 0.024533531188199113 0.0 0.01219787764838567 0.025690801793496008 0.0 0.0114797300663654 0.026993051459938754 0.0 0.010737096912173555 0.028398537593017976 0.0 0.009958074884526765 0.02982496706459591 0.0 0.04565698235653155 0.004127481126727244 0.0 0.04427991203388305 0.005053699160426564 0.0 0.042915309878607644 0.005979851727792739 0.0 0.0415630721689998 0.0069074554439126565 0.0 0.040223109174639796 0.007837412341336123 0.0 0.03889503185585916 0.008771128696398213 0.0 0.037578612153438835 0.009709174038579963 0.0 0.03627326248902277 0.010652470448995774 0.0 0.034978643050817396 0.011601238661130891 0.0 0.03369410742554611 0.012555729123143738 0.0 0.03241914609753865 0.013515765760865226 0.0 0.031153143588324776 0.01448108038570423 0.0 0.029895694054450857 0.0154493393077236 0.0 0.028646540897581337 0.016418962015195063 0.0 0.027405640403558154 0.017388264920861034 0.0 0.026173146674331682 0.018355923223611043 0.0 0.024950071033294677 0.01931732769150625 0.0 0.02373716363080093 0.020272152747159863 0.0 0.02253618367596237 0.02122173724862731 0.0 0.0213494225631286 0.022164289543778554 0.0 0.020180356056369878 0.02309686660540978 0.0 0.01903461139431297 0.0240350362248572 0.0 0.017916655024709092 0.024992273935580622 0.0 0.016828121201292116 0.02599493378464839 0.0 0.015769829684129894 0.02705489628303292 0.0 0.014742959229505472 0.02818073156096721 0.0 0.013747599060897156 0.0293724124152693 0.0 0.012783144862736386 0.030623003790080334 0.0 0.01184924997297934 0.03193022973639742 0.0 0.010945343623092173 0.03329090449839886 0.0 0.05088517578557974 0.00837496619135996 0.0 0.04937552715206486 0.009289285662817108 0.0 0.04787734807668362 0.010203645341282824 0.0 0.046390982330190206 0.011118640194264572 0.0 0.04491660765652834 0.01203460964604702 0.0 0.043454263745204634 0.012951954531965472 0.0 0.042003917197487466 0.013870802165442193 0.0 0.04056536072201329 0.014791250207747828 0.0 0.039138420604298604 0.015713228191646188 0.0 0.03772273720605677 0.01663653324177291 0.0 0.03631807720674473 0.017560647804383343 0.0 0.034924161205744826 0.01848492329583535 0.0 0.033540707174785654 0.019409167369750686 0.0 0.032167534088101725 0.020333207692905662 0.0 0.03080457665197198 0.02125626952356561 0.0 0.02945185442500583 0.02217839295154726 0.0 0.028109614275913037 0.023101355298536085 0.0 0.026778198795093574 0.024025952760882617 0.0 0.025458519793250714 0.024953697662896658 0.0 0.024151212840267142 0.02588972176650072 0.0 0.022857190981834828 0.026842053739084503 0.0 0.021576598971349184 0.02781771120206788 0.0 0.02030963291454762 0.028822368556256164 0.0 0.019058304286091975 0.029861179931123097 0.0 0.017823854204489134 0.03093680263689906 0.0 0.016609543254195766 0.03205351509477642 0.0 0.015416445494351994 0.033213325933251284 0.0 0.014245999796743198 0.03442037650657282 0.